REMARK  1 active torsions:
REMARK  status: ('A' for Active; 'I' for Inactive)
REMARK    1  A    between atoms: C5'_1  and  C4'_3 
ROOT
HETATM    1  C4' ANU D7013      -9.547   3.894   4.874  0.68 19.65     0.183 C 
HETATM    2  O4' ANU D7013      -8.840   3.705   6.018  0.76 19.69    -0.331 OA
HETATM    3  C3' ANU D7013      -9.048   2.870   3.898  0.66 19.68     0.214 C 
HETATM    4  O3' ANU D7013      -8.239   3.312   2.843  0.79 19.28    -0.218 OA
HETATM    5  C2' ANU D7013      -8.638   1.764   4.648  0.85 19.67     0.206 C 
HETATM    6  C1' ANU D7013      -8.461   2.341   6.057  0.64 19.88     0.239 C 
HETATM    7  N1  ANU D7013      -9.283   1.771   6.850  0.70 19.93    -0.267 N 
HETATM    8  C2  ANU D7013     -10.215   0.849   6.024  0.73 19.75     0.255 A 
HETATM    9  O2  ANU D7013      -9.831   0.981   4.692  0.34 19.83    -0.296 OA
HETATM   10  N3  ANU D7013     -11.222   0.100   6.673  0.90 19.79    -0.180 NA
HETATM   11  C4  ANU D7013     -11.354   0.187   8.023  0.55 19.76     0.217 A 
HETATM   12  O4  ANU D7013     -12.367  -0.566   8.681  0.76 19.67    -0.169 OA
HETATM   13  C5  ANU D7013     -10.424   1.097   8.856  1.00 20.03     0.066 A 
HETATM   14  C6  ANU D7013      -9.422   1.846   8.197  0.64 19.93     0.085 A 
ENDROOT
BRANCH   1  15
HETATM   15  C5' ANU D7013     -11.050   4.115   4.963  0.91 19.25     0.214 C 
HETATM   16  O5' ANU D7013     -11.502   4.719   6.159  0.83 18.62    -0.218 OA
ENDBRANCH   1  15
TORSDOF 1
