REMARK SMILES COC(=O)C1=C(C)NC(C)=C(C(=O)OCCN(C)Cc2ccccc2)[C@H]1c1cccc([N+](=O)[O-])c1
REMARK SMILES IDX 14 1 12 2 13 3 11 4 5 5 6 6 26 7 8 8 9 9 7 10 10 12 3 13
REMARK SMILES IDX 4 14 2 15 1 16 27 17 35 18 28 19 31 20 29 21 30 22 32 23
REMARK SMILES IDX 33 24 34 25 15 26 16 27 17 28 18 29 19 30 20 31 21 32 25 33
REMARK SMILES IDX 22 34 24 35 23 36
REMARK H PARENT 8 11
ROOT
ATOM      1  O   UNL     1       0.448   0.685  -0.189  1.00  0.00    -0.461 OA
ENDROOT
BRANCH   1   2
ATOM      2  C   UNL     1      -0.183   0.040   0.820  1.00  0.00     0.336 C 
ATOM      3  O   UNL     1      -0.086   0.266   2.015  1.00  0.00    -0.246 OA
BRANCH   2   4
ATOM      4  C   UNL     1      -1.090  -0.976   0.257  1.00  0.00     0.068 C 
ATOM      5  C   UNL     1      -3.434  -1.931   0.081  1.00  0.00     0.068 C 
ATOM      6  C   UNL     1      -2.916  -2.952  -0.640  1.00  0.00     0.023 C 
ATOM      7  C   UNL     1      -2.563  -0.787   0.591  1.00  0.00     0.098 C 
ATOM      8  N   UNL     1      -1.561  -2.956  -0.944  1.00  0.00    -0.362 N 
ATOM      9  C   UNL     1      -0.648  -2.026  -0.470  1.00  0.00     0.023 C 
ATOM     10  C   UNL     1      -3.695  -4.151  -1.114  1.00  0.00     0.065 C 
ATOM     11  H   UNL     1      -1.189  -3.778  -1.416  1.00  0.00     0.166 HD
ATOM     12  C   UNL     1       0.800  -2.305  -0.780  1.00  0.00     0.065 C 
BRANCH   5  13
ATOM     13  C   UNL     1      -4.857  -1.840   0.468  1.00  0.00     0.336 C 
ATOM     14  O   UNL     1      -5.231  -1.603   1.606  1.00  0.00    -0.246 OA
BRANCH  13  15
ATOM     15  O   UNL     1      -5.646  -1.957  -0.628  1.00  0.00    -0.466 OA
ATOM     16  C   UNL     1      -7.037  -1.794  -0.357  1.00  0.00     0.282 C 
ENDBRANCH  13  15
ENDBRANCH   5  13
BRANCH   7  17
ATOM     17  C   UNL     1      -3.080   0.565   0.082  1.00  0.00    -0.029 A 
ATOM     18  C   UNL     1      -3.575   1.515   0.993  1.00  0.00     0.090 A 
ATOM     19  C   UNL     1      -3.082   0.875  -1.291  1.00  0.00     0.005 A 
ATOM     20  C   UNL     1      -4.059   2.746   0.527  1.00  0.00     0.269 A 
ATOM     21  C   UNL     1      -3.561   2.105  -1.747  1.00  0.00     0.007 A 
ATOM     22  C   UNL     1      -4.053   3.045  -0.841  1.00  0.00     0.085 A 
BRANCH  20  23
ATOM     23  N   UNL     1      -4.584   3.731   1.483  1.00  0.00     0.062 N 
ATOM     24  O   UNL     1      -4.522   3.457   2.690  1.00  0.00    -0.258 OA
ATOM     25  O   UNL     1      -5.058   4.781   1.024  1.00  0.00    -0.258 OA
ENDBRANCH  20  23
ENDBRANCH   7  17
ENDBRANCH   2   4
ENDBRANCH   1   2
BRANCH   1  26
ATOM     26  C   UNL     1       1.343   1.745   0.194  1.00  0.00     0.248 C 
BRANCH  26  27
ATOM     27  C   UNL     1       2.789   1.278  -0.025  1.00  0.00     0.126 C 
BRANCH  27  28
ATOM     28  N   UNL     1       3.780   2.330   0.240  1.00  0.00    -0.299 NA
ATOM     29  C   UNL     1       3.956   2.569   1.672  1.00  0.00     0.105 C 
BRANCH  28  30
ATOM     30  C   UNL     1       5.061   2.108  -0.455  1.00  0.00     0.119 C 
BRANCH  30  31
ATOM     31  C   UNL     1       5.854   0.877  -0.069  1.00  0.00    -0.034 A 
ATOM     32  C   UNL     1       5.678  -0.333  -0.757  1.00  0.00     0.005 A 
ATOM     33  C   UNL     1       6.798   0.931   0.968  1.00  0.00     0.005 A 
ATOM     34  C   UNL     1       6.425  -1.460  -0.414  1.00  0.00     0.000 A 
ATOM     35  C   UNL     1       7.542  -0.198   1.312  1.00  0.00     0.000 A 
ATOM     36  C   UNL     1       7.356  -1.393   0.621  1.00  0.00     0.000 A 
ENDBRANCH  30  31
ENDBRANCH  28  30
ENDBRANCH  27  28
ENDBRANCH  26  27
ENDBRANCH   1  26
TORSDOF 11
