REMARK SMILES CC(=O)c1ccc2c(c1)N(CC(C)N(C)C)c1ccccc1S2
REMARK SMILES IDX 11 1 12 2 13 3 14 4 15 5 16 6 10 7 17 8 8 9 18 10 22 11 7 12
REMARK SMILES IDX 9 13 19 14 21 15 23 16 6 17 4 18 20 19 5 20 2 21 3 22 1 23
REMARK H PARENT
ROOT
ATOM      1  C   UNL     1      -0.790  -0.311   0.912  1.00  0.00     0.141 C 
ENDROOT
BRANCH   1   2
ATOM      2  C   UNL     1      -1.902  -0.602  -0.161  1.00  0.00     0.072 C 
ATOM      3  C   UNL     1      -1.255  -1.040  -1.489  1.00  0.00     0.026 C 
BRANCH   2   4
ATOM      4  N   UNL     1      -2.894  -1.611   0.336  1.00  0.00    -0.305 NA
ATOM      5  C   UNL     1      -3.679  -1.101   1.468  1.00  0.00     0.105 C 
ATOM      6  C   UNL     1      -3.827  -2.061  -0.705  1.00  0.00     0.105 C 
ENDBRANCH   2   4
ENDBRANCH   1   2
BRANCH   1   7
ATOM      7  N   UNL     1       0.169   0.764   0.516  1.00  0.00    -0.338 N 
ATOM      8  C   UNL     1      -0.273   2.114   0.707  1.00  0.00     0.055 A 
ATOM      9  C   UNL     1       1.468   0.373   0.065  1.00  0.00     0.056 A 
ATOM     10  C   UNL     1      -1.565   2.433   1.192  1.00  0.00     0.027 A 
ATOM     11  C   UNL     1       0.557   3.217   0.422  1.00  0.00     0.036 A 
ATOM     12  C   UNL     1       2.458   1.325  -0.257  1.00  0.00     0.036 A 
ATOM     13  C   UNL     1       1.849  -0.980  -0.107  1.00  0.00     0.039 A 
ATOM     14  C   UNL     1      -2.009   3.750   1.374  1.00  0.00     0.002 A 
ATOM     15  C   UNL     1       0.106   4.542   0.607  1.00  0.00     0.017 A 
ATOM     16  S   UNL     1       2.221   3.079  -0.172  1.00  0.00    -0.086 SA
ATOM     17  C   UNL     1       3.741   0.931  -0.694  1.00  0.00     0.018 A 
ATOM     18  C   UNL     1       3.128  -1.377  -0.545  1.00  0.00     0.019 A 
ATOM     19  C   UNL     1      -1.172   4.809   1.079  1.00  0.00     0.001 A 
ATOM     20  C   UNL     1       4.080  -0.410  -0.835  1.00  0.00     0.013 A 
BRANCH  18  21
ATOM     21  C   UNL     1       3.415  -2.838  -0.689  1.00  0.00     0.159 C 
ATOM     22  O   UNL     1       2.540  -3.663  -0.436  1.00  0.00    -0.295 OA
ATOM     23  C   UNL     1       4.782  -3.273  -1.147  1.00  0.00     0.093 C 
ENDBRANCH  18  21
ENDBRANCH   1   7
TORSDOF 4
