REMARK SMILES CC(=O)O[C@H]1CC[C@]2(C)[C@H]3C(=O)C=C4[C@@H]5C[C@@](C)(C(=O)O)CC[C@]5(C)CC[C@@]4(C)[C@]3(C)CC[C@H]2C1(C)C
REMARK SMILES IDX 5 1 6 2 7 3 8 4 9 5 34 6 33 7 32 8 30 9 31 10 10 11 11 12
REMARK SMILES IDX 12 13 13 14 14 15 15 16 16 17 17 18 18 19 22 20 23 21 24 22
REMARK SMILES IDX 25 23 26 24 27 25 28 26 29 27 35 28 36 29 37 30 4 31 2 32
REMARK SMILES IDX 3 33 1 34 19 35 20 36 21 37
REMARK H PARENT 21 38
ROOT
ATOM      1  C   UNL     1       5.383   0.419  -0.754  1.00  0.00     0.182 C 
ATOM      2  C   UNL     1       4.442   0.971  -1.823  1.00  0.00     0.046 C 
ATOM      3  C   UNL     1       3.112   0.213  -1.905  1.00  0.00     0.011 C 
ATOM      4  C   UNL     1       2.482  -0.209  -0.527  1.00  0.00    -0.018 C 
ATOM      5  C   UNL     1       2.699  -1.731  -0.347  1.00  0.00     0.012 C 
ATOM      6  C   UNL     1       3.171   0.637   0.603  1.00  0.00     0.005 C 
ATOM      7  C   UNL     1       2.469   0.473   1.964  1.00  0.00     0.005 C 
ATOM      8  C   UNL     1       0.992   0.878   1.892  1.00  0.00     0.009 C 
ATOM      9  C   UNL     1       0.161   0.096   0.835  1.00  0.00    -0.013 C 
ATOM     10  C   UNL     1       0.028  -1.361   1.353  1.00  0.00     0.013 C 
ATOM     11  C   UNL     1       0.934   0.153  -0.540  1.00  0.00     0.073 C 
ATOM     12  C   UNL     1       0.117  -0.533  -1.647  1.00  0.00     0.159 C 
ATOM     13  O   UNL     1       0.618  -1.053  -2.642  1.00  0.00    -0.295 OA
ATOM     14  C   UNL     1      -1.365  -0.533  -1.548  1.00  0.00     0.047 C 
ATOM     15  C   UNL     1      -2.039   0.021  -0.524  1.00  0.00    -0.057 C 
ATOM     16  C   UNL     1      -3.557  -0.176  -0.438  1.00  0.00     0.023 C 
ATOM     17  C   UNL     1      -4.343   1.146  -0.600  1.00  0.00     0.027 C 
ATOM     18  C   UNL     1      -5.868   1.007  -0.415  1.00  0.00     0.066 C 
ATOM     19  C   UNL     1      -6.508   2.407  -0.444  1.00  0.00     0.024 C 
ATOM     20  C   UNL     1      -6.134   0.347   0.948  1.00  0.00     0.019 C 
ATOM     21  C   UNL     1      -5.458  -1.016   1.062  1.00  0.00     0.008 C 
ATOM     22  C   UNL     1      -3.922  -0.987   0.838  1.00  0.00    -0.026 C 
ATOM     23  C   UNL     1      -3.517  -2.475   0.645  1.00  0.00     0.012 C 
ATOM     24  C   UNL     1      -3.192  -0.455   2.105  1.00  0.00     0.008 C 
ATOM     25  C   UNL     1      -2.211   0.713   1.912  1.00  0.00     0.012 C 
ATOM     26  C   UNL     1      -1.322   0.740   0.625  1.00  0.00    -0.005 C 
ATOM     27  C   UNL     1      -1.202   2.250   0.227  1.00  0.00     0.017 C 
ATOM     28  C   UNL     1       4.748   0.532   0.675  1.00  0.00     0.005 C 
ATOM     29  C   UNL     1       5.280   1.856   1.299  1.00  0.00     0.015 C 
ATOM     30  C   UNL     1       5.248  -0.606   1.590  1.00  0.00     0.015 C 
ENDROOT
BRANCH   1  31
ATOM     31  O   UNL     1       5.696  -0.952  -1.070  1.00  0.00    -0.462 OA
BRANCH  31  32
ATOM     32  C   UNL     1       6.718  -1.162  -1.944  1.00  0.00     0.302 C 
ATOM     33  O   UNL     1       7.404  -0.294  -2.465  1.00  0.00    -0.253 OA
ATOM     34  C   UNL     1       6.872  -2.630  -2.202  1.00  0.00     0.139 C 
ENDBRANCH  31  32
ENDBRANCH   1  31
BRANCH  18  35
ATOM     35  C   UNL     1      -6.486   0.216  -1.566  1.00  0.00     0.309 C 
ATOM     36  O   UNL     1      -5.950  -0.077  -2.622  1.00  0.00    -0.252 OA
BRANCH  35  37
ATOM     37  O   UNL     1      -7.766  -0.140  -1.341  1.00  0.00    -0.481 OA
ATOM     38  H   UNL     1      -8.028  -0.629  -2.151  1.00  0.00     0.296 HD
ENDBRANCH  35  37
ENDBRANCH  18  35
TORSDOF 4
