REMARK SMILES CC(=O)O[C@H]1C[C@H](O[C@H]2[C@@H](O)C[C@H](O[C@H]3[C@@H](O)C[C@H](O[C@H]4CC[C@@]5(C)[C@H](CC[C@@H]6[C@@H]5CC[C@]5(C)[C@@H](C7=CC(=O)OC7)CC[C@]65O)C4)O[C@@H]3C)O[C@@H]2C)O[C@H](C)[C@H]1O
REMARK SMILES IDX 9 1 10 2 12 3 13 4 50 5 51 6 52 7 8 8 7 9 54 10 53 11 56 12
REMARK SMILES IDX 5 13 6 14 55 15 57 16 4 18 2 19 3 20 1 21 11 22 14 24 15 25
REMARK SMILES IDX 16 26 48 27 18 28 47 29 19 30 49 31 17 32 20 34 21 35 22 36
REMARK SMILES IDX 46 37 23 38 26 39 24 40 27 41 30 42 28 43 29 44 31 45 44 46
REMARK SMILES IDX 32 47 43 48 33 49 42 50 35 51 25 52 34 53 45 54 36 56 37 57
REMARK SMILES IDX 41 58 38 59 40 60 39 61
REMARK H PARENT 57 17 11 23 17 33 45 55
ROOT
ATOM      1  C   UNL     1       7.276   1.383  -1.561  1.00  0.00     0.179 C 
ATOM      2  C   UNL     1       6.928   0.301  -2.600  1.00  0.00     0.151 C 
ATOM      3  C   UNL     1       6.032  -0.767  -1.990  1.00  0.00     0.096 C 
ATOM      4  C   UNL     1       4.913  -0.147  -1.151  1.00  0.00     0.253 C 
ATOM      5  O   UNL     1       4.796   1.250  -1.422  1.00  0.00    -0.347 OA
ATOM      6  C   UNL     1       5.958   2.004  -1.037  1.00  0.00     0.150 C 
ATOM      7  C   UNL     1       5.750   3.401  -1.612  1.00  0.00     0.041 C 
ENDROOT
BRANCH   1   8
ATOM      8  O   UNL     1       7.961   0.829  -0.416  1.00  0.00    -0.344 OA
BRANCH   8   9
ATOM      9  C   UNL     1       9.383   0.780  -0.556  1.00  0.00     0.254 C 
ATOM     10  C   UNL     1      11.154  -0.489  -1.528  1.00  0.00     0.150 C 
ATOM     11  O   UNL     1       9.761  -0.455  -1.160  1.00  0.00    -0.347 OA
ATOM     12  C   UNL     1      12.057   0.273  -0.533  1.00  0.00     0.184 C 
ATOM     13  C   UNL     1      11.416   0.239   0.867  1.00  0.00     0.212 C 
ATOM     14  C   UNL     1      10.014   0.864   0.835  1.00  0.00     0.110 C 
ATOM     15  C   UNL     1      11.537  -1.961  -1.617  1.00  0.00     0.042 C 
BRANCH  12  16
ATOM     16  O   UNL     1      12.171   1.649  -0.948  1.00  0.00    -0.387 OA
ATOM     17  H   UNL     1      12.712   1.666  -1.757  1.00  0.00     0.211 HD
ENDBRANCH  12  16
BRANCH  13  18
ATOM     18  O   UNL     1      12.197   0.962   1.845  1.00  0.00    -0.459 OA
BRANCH  18  19
ATOM     19  C   UNL     1      13.394   0.416   2.175  1.00  0.00     0.302 C 
ATOM     20  O   UNL     1      13.839  -0.632   1.730  1.00  0.00    -0.253 OA
ATOM     21  C   UNL     1      14.134   1.301   3.129  1.00  0.00     0.139 C 
ENDBRANCH  18  19
ENDBRANCH  13  18
ENDBRANCH   8   9
ENDBRANCH   1   8
BRANCH   2  22
ATOM     22  O   UNL     1       8.087  -0.300  -3.173  1.00  0.00    -0.390 OA
ATOM     23  H   UNL     1       8.601  -0.683  -2.431  1.00  0.00     0.211 HD
ENDBRANCH   2  22
BRANCH   4  24
ATOM     24  O   UNL     1       3.685  -0.748  -1.555  1.00  0.00    -0.344 OA
BRANCH  24  25
ATOM     25  C   UNL     1       2.765  -1.090  -0.507  1.00  0.00     0.179 C 
ATOM     26  C   UNL     1       2.053   0.111   0.165  1.00  0.00     0.151 C 
ATOM     27  C   UNL     1       1.701  -1.988  -1.197  1.00  0.00     0.150 C 
ATOM     28  C   UNL     1       0.869   0.563  -0.675  1.00  0.00     0.096 C 
ATOM     29  O   UNL     1       0.415  -1.867  -0.590  1.00  0.00    -0.347 OA
ATOM     30  C   UNL     1      -0.160  -0.568  -0.746  1.00  0.00     0.253 C 
ATOM     31  C   UNL     1       2.112  -3.456  -1.150  1.00  0.00     0.041 C 
BRANCH  26  32
ATOM     32  O   UNL     1       2.915   1.216   0.427  1.00  0.00    -0.390 OA
ATOM     33  H   UNL     1       3.300   1.484  -0.435  1.00  0.00     0.211 HD
ENDBRANCH  26  32
BRANCH  30  34
ATOM     34  O   UNL     1      -1.069  -0.384   0.339  1.00  0.00    -0.349 OA
BRANCH  34  35
ATOM     35  C   UNL     1      -2.451  -0.372  -0.025  1.00  0.00     0.121 C 
ATOM     36  C   UNL     1      -3.188  -1.356   0.884  1.00  0.00     0.033 C 
ATOM     37  C   UNL     1      -2.951   1.070   0.137  1.00  0.00     0.036 C 
ATOM     38  C   UNL     1      -4.709  -1.197   0.832  1.00  0.00     0.010 C 
ATOM     39  C   UNL     1      -4.486   1.203   0.071  1.00  0.00    -0.002 C 
ATOM     40  C   UNL     1      -5.202   0.263   1.087  1.00  0.00    -0.026 C 
ATOM     41  C   UNL     1      -4.943   1.036  -1.392  1.00  0.00     0.005 C 
ATOM     42  C   UNL     1      -6.787   0.323   0.916  1.00  0.00     0.001 C 
ATOM     43  C   UNL     1      -6.371   0.545  -1.580  1.00  0.00     0.007 C 
ATOM     44  C   UNL     1      -7.278   0.942  -0.416  1.00  0.00     0.025 C 
ATOM     45  C   UNL     1      -7.562   0.987   2.077  1.00  0.00     0.005 C 
ATOM     46  C   UNL     1      -8.786   0.611  -0.673  1.00  0.00     0.074 C 
ATOM     47  C   UNL     1      -8.940   1.542   1.715  1.00  0.00     0.010 C 
ATOM     48  C   UNL     1      -9.020  -0.845  -1.143  1.00  0.00     0.037 C 
ATOM     49  C   UNL     1      -9.705   0.801   0.603  1.00  0.00     0.003 C 
ATOM     50  C   UNL     1     -10.243  -1.334  -0.388  1.00  0.00     0.012 C 
ATOM     51  C   UNL     1     -10.109  -0.664   0.987  1.00  0.00     0.028 C 
ATOM     52  C   UNL     1      -4.778   0.642   2.535  1.00  0.00     0.012 C 
ATOM     53  C   UNL     1     -10.972   1.646   0.293  1.00  0.00     0.015 C 
BRANCH  46  54
ATOM     54  O   UNL     1      -9.242   1.488  -1.712  1.00  0.00    -0.389 OA
ATOM     55  H   UNL     1      -8.811   1.243  -2.547  1.00  0.00     0.211 HD
ENDBRANCH  46  54
BRANCH  51  56
ATOM     56  C   UNL     1     -11.303  -0.870   1.884  1.00  0.00    -0.022 C 
ATOM     57  C   UNL     1     -12.487  -1.405   1.578  1.00  0.00     0.096 C 
ATOM     58  C   UNL     1     -11.262  -0.551   3.333  1.00  0.00     0.265 C 
ATOM     59  C   UNL     1     -13.276  -1.460   2.806  1.00  0.00     0.331 C 
ATOM     60  O   UNL     1     -12.531  -0.974   3.834  1.00  0.00    -0.458 OA
ATOM     61  O   UNL     1     -14.413  -1.887   2.884  1.00  0.00    -0.247 OA
ENDBRANCH  51  56
ENDBRANCH  34  35
ENDBRANCH  30  34
ENDBRANCH  24  25
ENDBRANCH   4  24
TORSDOF 13
