REMARK SMILES CC(=O)c1ccc(S(=O)(=O)NC(=O)NC2CCCCC2)cc1
REMARK SMILES IDX 4 1 5 2 6 3 7 4 21 5 22 6 2 7 3 8 1 9 8 10 9 11 10 12 11 13
REMARK SMILES IDX 12 14 13 15 14 16 15 19 16 20 20 21 17 22 19 23 18 24
REMARK H PARENT 11 17 14 18
ROOT
ATOM      1  C   UNL     1       5.025   0.031   0.389  1.00  0.00     0.017 A 
ATOM      2  C   UNL     1       4.438  -1.208   0.102  1.00  0.00     0.013 A 
ATOM      3  C   UNL     1       3.306  -1.277  -0.717  1.00  0.00     0.023 A 
ATOM      4  C   UNL     1       2.761  -0.102  -1.244  1.00  0.00     0.087 A 
ATOM      5  C   UNL     1       3.344   1.139  -0.975  1.00  0.00     0.023 A 
ATOM      6  C   UNL     1       4.471   1.202  -0.152  1.00  0.00     0.013 A 
ENDROOT
BRANCH   1   7
ATOM      7  C   UNL     1       6.229   0.156   1.263  1.00  0.00     0.159 C 
ATOM      8  O   UNL     1       6.580   1.266   1.660  1.00  0.00    -0.295 OA
ATOM      9  C   UNL     1       6.981  -1.089   1.654  1.00  0.00     0.093 C 
ENDBRANCH   1   7
BRANCH   4  10
ATOM     10  S   UNL     1       1.320  -0.184  -2.298  1.00  0.00     0.265 S 
ATOM     11  O   UNL     1       1.198  -1.561  -2.721  1.00  0.00    -0.201 OA
ATOM     12  O   UNL     1       1.437   0.916  -3.228  1.00  0.00    -0.201 OA
BRANCH  10  13
ATOM     13  N   UNL     1       0.129   0.153  -1.182  1.00  0.00    -0.231 N 
ATOM     14  C   UNL     1      -1.209   0.247  -1.533  1.00  0.00     0.328 C 
ATOM     15  O   UNL     1      -1.629   0.069  -2.663  1.00  0.00    -0.248 OA
ATOM     16  N   UNL     1      -2.000   0.551  -0.461  1.00  0.00    -0.335 N 
ATOM     17  H   UNL     1       0.434   0.391  -0.251  1.00  0.00     0.185 HD
ATOM     18  H   UNL     1      -1.598   0.477   0.459  1.00  0.00     0.165 HD
BRANCH  16  19
ATOM     19  C   UNL     1      -3.454   0.570  -0.570  1.00  0.00     0.083 C 
ATOM     20  C   UNL     1      -4.005  -0.867  -0.546  1.00  0.00     0.025 C 
ATOM     21  C   UNL     1      -4.063   1.461   0.527  1.00  0.00     0.025 C 
ATOM     22  C   UNL     1      -5.421  -0.925   0.013  1.00  0.00     0.002 C 
ATOM     23  C   UNL     1      -4.438   0.658   1.768  1.00  0.00     0.002 C 
ATOM     24  C   UNL     1      -5.479  -0.418   1.455  1.00  0.00     0.000 C 
ENDBRANCH  16  19
ENDBRANCH  10  13
ENDBRANCH   4  10
TORSDOF 4
