REMARK SMILES CC(=O)Nc1ccccc1
REMARK SMILES IDX 1 1 2 2 3 3 4 4 5 6 6 7 10 8 7 9 9 10 8 11
REMARK H PARENT 4 5
ROOT
ATOM      1  C   UNL     1       3.404  -0.621   0.108  1.00  0.00     0.114 C 
ATOM      2  C   UNL     1       1.946  -0.854   0.418  1.00  0.00     0.221 C 
ATOM      3  O   UNL     1       1.601  -1.778   1.145  1.00  0.00    -0.275 OA
ATOM      4  N   UNL     1       1.130   0.089  -0.180  1.00  0.00    -0.326 N 
ATOM      5  H   UNL     1       1.588   0.804  -0.731  1.00  0.00     0.169 HD
ENDROOT
BRANCH   4   6
ATOM      6  C   UNL     1      -0.276   0.181  -0.105  1.00  0.00     0.041 A 
ATOM      7  C   UNL     1      -1.081  -0.711   0.604  1.00  0.00     0.026 A 
ATOM      8  C   UNL     1      -0.885   1.240  -0.793  1.00  0.00     0.026 A 
ATOM      9  C   UNL     1      -2.470  -0.549   0.627  1.00  0.00     0.002 A 
ATOM     10  C   UNL     1      -2.273   1.401  -0.771  1.00  0.00     0.002 A 
ATOM     11  C   UNL     1      -3.066   0.506  -0.059  1.00  0.00     0.000 A 
ENDBRANCH   4   6
TORSDOF 1
