REMARK SMILES Cc1cnc(C(=O)O)c[n+]1[O-]
REMARK SMILES IDX 6 1 7 2 5 3 2 4 3 5 10 6 4 7 9 8 1 9 11 10 8 11
REMARK H PARENT 8 12
ROOT
ATOM      1  C   UNL     1      -2.804   0.092   0.429  1.00  0.00     0.360 C 
ATOM      2  O   UNL     1      -3.502  -0.516   1.219  1.00  0.00    -0.244 OA
ENDROOT
BRANCH   1   3
ATOM      3  C   UNL     1      -1.325  -0.016   0.267  1.00  0.00     0.213 A 
ATOM      4  C   UNL     1       1.379  -0.277   0.040  1.00  0.00     0.208 A 
ATOM      5  C   UNL     1       0.641  -0.999   0.960  1.00  0.00     0.187 A 
ATOM      6  N   UNL     1       0.704   0.606  -0.789  1.00  0.00    -0.173 N 
ATOM      7  N   UNL     1      -0.693  -0.887   1.090  1.00  0.00    -0.237 NA
ATOM      8  C   UNL     1      -0.658   0.737  -0.673  1.00  0.00     0.357 A 
ATOM      9  C   UNL     1       2.857  -0.400  -0.105  1.00  0.00     0.127 C 
ATOM     10  O   UNL     1       1.325   1.300  -1.657  1.00  0.00    -0.618 OA
ENDBRANCH   1   3
BRANCH   1  11
ATOM     11  O   UNL     1      -3.353   0.978  -0.427  1.00  0.00    -0.476 OA
ATOM     12  H   UNL     1      -4.310   0.945  -0.211  1.00  0.00     0.297 HD
ENDBRANCH   1  11
TORSDOF 2
