REMARK SMILES COc1cc(O)c(C(=O)Nc2nc(C(=O)NCCN(C(C)C)C(C)C)cs2)cc1OC
REMARK SMILES IDX 14 1 15 2 16 3 13 5 11 6 12 7 27 8 26 9 10 10 8 11 9 12 7 14
REMARK SMILES IDX 3 15 4 16 29 17 5 18 28 19 2 20 1 21 30 22 31 23 6 24 17 26
REMARK SMILES IDX 18 27 19 28 20 29 21 30 22 31 23 32 24 33 25 34
REMARK H PARENT 16 4 10 13 6 25
ROOT
ATOM      1  C   UNL     1      -1.970  -0.817  -2.140  1.00  0.00     0.270 C 
ATOM      2  O   UNL     1      -1.844  -0.007  -3.054  1.00  0.00    -0.267 OA
ATOM      3  N   UNL     1      -3.205  -1.324  -1.770  1.00  0.00    -0.349 N 
ATOM      4  H   UNL     1      -3.276  -1.661  -0.820  1.00  0.00     0.163 HD
ENDROOT
BRANCH   1   5
ATOM      5  C   UNL     1      -0.829  -1.286  -1.336  1.00  0.00     0.141 A 
ATOM      6  C   UNL     1       1.260  -1.187  -0.572  1.00  0.00     0.190 A 
ATOM      7  N   UNL     1       0.386  -0.597  -1.351  1.00  0.00    -0.215 NA
ATOM      8  S   UNL     1       0.713  -2.584   0.228  1.00  0.00    -0.104 S 
ATOM      9  C   UNL     1      -0.816  -2.409  -0.522  1.00  0.00     0.102 A 
BRANCH   6  10
ATOM     10  N   UNL     1       2.527  -0.690  -0.431  1.00  0.00    -0.298 N 
ATOM     11  C   UNL     1       3.548  -1.185   0.340  1.00  0.00     0.261 C 
ATOM     12  O   UNL     1       3.496  -2.172   1.072  1.00  0.00    -0.269 OA
ATOM     13  H   UNL     1       2.692   0.157  -0.966  1.00  0.00     0.172 HD
BRANCH  11  14
ATOM     14  C   UNL     1       4.849  -0.435   0.258  1.00  0.00     0.085 A 
ATOM     15  C   UNL     1       7.360   0.835   0.214  1.00  0.00     0.164 A 
ATOM     16  C   UNL     1       6.254   1.446  -0.376  1.00  0.00     0.097 A 
ATOM     17  C   UNL     1       7.230  -0.430   0.808  1.00  0.00     0.161 A 
ATOM     18  C   UNL     1       5.008   0.812  -0.356  1.00  0.00     0.132 A 
ATOM     19  C   UNL     1       5.975  -1.045   0.843  1.00  0.00     0.068 A 
BRANCH  15  20
ATOM     20  O   UNL     1       8.617   1.385   0.182  1.00  0.00    -0.493 OA
ATOM     21  C   UNL     1       8.670   2.794   0.353  1.00  0.00     0.278 C 
ENDBRANCH  15  20
BRANCH  17  22
ATOM     22  O   UNL     1       8.374  -0.964   1.346  1.00  0.00    -0.493 OA
ATOM     23  C   UNL     1       8.335  -2.337   1.711  1.00  0.00     0.278 C 
ENDBRANCH  17  22
BRANCH  18  24
ATOM     24  O   UNL     1       3.944   1.431  -0.958  1.00  0.00    -0.507 OA
ATOM     25  H   UNL     1       4.215   2.314  -1.268  1.00  0.00     0.293 HD
ENDBRANCH  18  24
ENDBRANCH  11  14
ENDBRANCH   6  10
ENDBRANCH   1   5
BRANCH   3  26
ATOM     26  C   UNL     1      -4.424  -0.711  -2.267  1.00  0.00     0.131 C 
BRANCH  26  27
ATOM     27  C   UNL     1      -4.763   0.565  -1.476  1.00  0.00     0.106 C 
BRANCH  27  28
ATOM     28  N   UNL     1      -4.776   0.361  -0.005  1.00  0.00    -0.297 NA
BRANCH  28  29
ATOM     29  C   UNL     1      -4.392   1.604   0.707  1.00  0.00     0.050 C 
ATOM     30  C   UNL     1      -5.487   2.671   0.765  1.00  0.00     0.024 C 
ATOM     31  C   UNL     1      -3.864   1.294   2.114  1.00  0.00     0.024 C 
ENDBRANCH  28  29
BRANCH  28  32
ATOM     32  C   UNL     1      -5.956  -0.336   0.557  1.00  0.00     0.050 C 
ATOM     33  C   UNL     1      -7.273  -0.216  -0.214  1.00  0.00     0.024 C 
ATOM     34  C   UNL     1      -5.612  -1.810   0.789  1.00  0.00     0.024 C 
ENDBRANCH  28  32
ENDBRANCH  27  28
ENDBRANCH  26  27
ENDBRANCH   3  26
TORSDOF 11
