REMARK SMILES CC(=O)SC[C@@H](C)C(=O)N1CCC[C@H]1C(=O)N[C@@H](Cc1ccccc1)C(=O)O
REMARK SMILES IDX 10 1 11 2 12 3 13 4 14 5 8 6 9 7 6 8 7 9 5 10 4 11 2 12 3 13
REMARK SMILES IDX 1 14 15 15 16 16 17 17 18 19 19 20 20 21 21 22 25 23 22 24
REMARK SMILES IDX 24 25 23 26 26 27 27 28 28 29
REMARK H PARENT 17 18 28 30
ROOT
ATOM      1  N   UNL     1       1.408  -0.760   1.298  1.00  0.00    -0.330 N 
ATOM      2  C   UNL     1       1.937   0.315   2.124  1.00  0.00     0.120 C 
ATOM      3  C   UNL     1       1.645  -0.132   3.546  1.00  0.00     0.024 C 
ATOM      4  C   UNL     1       0.331  -0.884   3.410  1.00  0.00     0.037 C 
ATOM      5  C   UNL     1       0.446  -1.585   2.052  1.00  0.00     0.174 C 
ENDROOT
BRANCH   1   6
ATOM      6  C   UNL     1       1.891  -1.199   0.081  1.00  0.00     0.226 C 
ATOM      7  O   UNL     1       1.461  -2.236  -0.427  1.00  0.00    -0.275 OA
BRANCH   6   8
ATOM      8  C   UNL     1       2.977  -0.375  -0.608  1.00  0.00     0.086 C 
ATOM      9  C   UNL     1       2.776  -0.445  -2.126  1.00  0.00     0.019 C 
BRANCH   8  10
ATOM     10  C   UNL     1       4.338  -0.937  -0.169  1.00  0.00     0.091 C 
BRANCH  10  11
ATOM     11  S   UNL     1       5.787  -0.086  -0.880  1.00  0.00    -0.088 SA
BRANCH  11  12
ATOM     12  C   UNL     1       5.784   1.406   0.052  1.00  0.00     0.185 C 
ATOM     13  O   UNL     1       4.964   1.631   0.933  1.00  0.00    -0.288 OA
ATOM     14  C   UNL     1       6.869   2.369  -0.332  1.00  0.00     0.101 C 
ENDBRANCH  11  12
ENDBRANCH  10  11
ENDBRANCH   8  10
ENDBRANCH   6   8
ENDBRANCH   1   6
BRANCH   5  15
ATOM     15  C   UNL     1      -0.947  -1.659   1.398  1.00  0.00     0.243 C 
ATOM     16  O   UNL     1      -1.746  -2.554   1.662  1.00  0.00    -0.273 OA
ATOM     17  N   UNL     1      -1.289  -0.547   0.654  1.00  0.00    -0.341 N 
ATOM     18  H   UNL     1      -0.499   0.003   0.328  1.00  0.00     0.164 HD
BRANCH  17  19
ATOM     19  C   UNL     1      -2.470  -0.551  -0.217  1.00  0.00     0.196 C 
BRANCH  19  20
ATOM     20  C   UNL     1      -3.259   0.750  -0.040  1.00  0.00     0.072 C 
BRANCH  20  21
ATOM     21  C   UNL     1      -4.563   0.776  -0.799  1.00  0.00    -0.045 A 
ATOM     22  C   UNL     1      -5.657   0.018  -0.358  1.00  0.00     0.004 A 
ATOM     23  C   UNL     1      -4.694   1.545  -1.964  1.00  0.00     0.004 A 
ATOM     24  C   UNL     1      -6.858   0.031  -1.068  1.00  0.00     0.000 A 
ATOM     25  C   UNL     1      -5.897   1.555  -2.672  1.00  0.00     0.000 A 
ATOM     26  C   UNL     1      -6.978   0.799  -2.224  1.00  0.00     0.000 A 
ENDBRANCH  20  21
ENDBRANCH  19  20
BRANCH  19  27
ATOM     27  C   UNL     1      -1.943  -0.651  -1.645  1.00  0.00     0.326 C 
ATOM     28  O   UNL     1      -1.007  -0.007  -2.101  1.00  0.00    -0.250 OA
BRANCH  27  29
ATOM     29  O   UNL     1      -2.607  -1.537  -2.411  1.00  0.00    -0.480 OA
ATOM     30  H   UNL     1      -2.140  -1.524  -3.271  1.00  0.00     0.296 HD
ENDBRANCH  27  29
ENDBRANCH  19  27
ENDBRANCH  17  19
ENDBRANCH   5  15
TORSDOF 11
