REMARK SMILES CCCS(=O)c1ccc2nc(NC(=O)OC)[nH]c2c1
REMARK SMILES IDX 6 1 7 2 8 3 9 4 10 5 11 6 17 7 18 8 19 9 4 11 5 12 3 13 2 14
REMARK SMILES IDX 1 15 12 16 13 17 14 18 15 20 16 21
REMARK H PARENT 17 10 12 19
ROOT
ATOM      1  C   UNL     1      -1.593   1.114   0.399  1.00  0.00     0.041 A 
ATOM      2  C   UNL     1      -1.679   1.491  -0.948  1.00  0.00     0.020 A 
ATOM      3  C   UNL     1      -0.581   1.347  -1.810  1.00  0.00     0.032 A 
ATOM      4  C   UNL     1       0.615   0.826  -1.296  1.00  0.00     0.091 A 
ATOM      5  N   UNL     1       1.813   0.590  -1.926  1.00  0.00    -0.213 NA
ATOM      6  C   UNL     1       2.606   0.110  -0.997  1.00  0.00     0.210 A 
ATOM      7  N   UNL     1       1.963   0.025   0.212  1.00  0.00    -0.324 N 
ATOM      8  C   UNL     1       0.679   0.473   0.047  1.00  0.00     0.068 A 
ATOM      9  C   UNL     1      -0.396   0.604   0.929  1.00  0.00     0.046 A 
ATOM     10  H   UNL     1       2.390  -0.314   1.066  1.00  0.00     0.170 HD
ENDROOT
BRANCH   1  11
ATOM     11  S   UNL     1      -3.043   1.321   1.465  1.00  0.00     0.053 S 
ATOM     12  O   UNL     1      -2.496   1.442   2.859  1.00  0.00    -0.254 OA
BRANCH  11  13
ATOM     13  C   UNL     1      -3.715  -0.368   1.312  1.00  0.00     0.110 C 
BRANCH  13  14
ATOM     14  C   UNL     1      -4.485  -0.598   0.016  1.00  0.00     0.010 C 
ATOM     15  C   UNL     1      -5.771   0.213  -0.074  1.00  0.00     0.005 C 
ENDBRANCH  13  14
ENDBRANCH  11  13
ENDBRANCH   1  11
BRANCH   6  16
ATOM     16  N   UNL     1       3.906  -0.257  -1.202  1.00  0.00    -0.261 N 
ATOM     17  C   UNL     1       4.707  -0.757  -0.220  1.00  0.00     0.413 C 
ATOM     18  O   UNL     1       4.384  -0.944   0.947  1.00  0.00    -0.224 OA
ATOM     19  H   UNL     1       4.281  -0.147  -2.132  1.00  0.00     0.176 HD
BRANCH  17  20
ATOM     20  O   UNL     1       5.935  -1.020  -0.735  1.00  0.00    -0.453 OA
ATOM     21  C   UNL     1       6.865  -1.549   0.211  1.00  0.00     0.284 C 
ENDBRANCH  17  20
ENDBRANCH   6  16
TORSDOF 5
