REMARK SMILES C=C1/C(=C\C=C2/CCC[C@]3(C)[C@@H]([C@H](C)CCCC(C)C)CC[C@@H]23)C[C@@H](O)C[C@@H]1O
REMARK SMILES IDX 15 1 16 2 17 3 18 4 19 5 20 6 13 7 14 8 12 9 21 10 10 11
REMARK SMILES IDX 22 12 9 13 23 14 8 15 6 16 7 17 5 18 11 19 4 20 3 21 24 22
REMARK SMILES IDX 2 23 25 24 28 25 1 26 27 27 26 28 29 30
REMARK H PARENT 26 29 29 31
ROOT
ATOM      1  C   UNL     1       3.761  -2.252  -0.571  1.00  0.00     0.003 C 
ENDROOT
BRANCH   1   2
ATOM      2  C   UNL     1       4.975  -1.425  -0.120  1.00  0.00     0.001 C 
BRANCH   2   3
ATOM      3  C   UNL     1       5.800  -0.862  -1.282  1.00  0.00     0.003 C 
BRANCH   3   4
ATOM      4  C   UNL     1       7.095  -0.132  -0.877  1.00  0.00    -0.017 C 
ATOM      5  C   UNL     1       6.826   1.085   0.007  1.00  0.00     0.007 C 
ATOM      6  C   UNL     1       8.107  -1.065  -0.210  1.00  0.00     0.007 C 
ENDBRANCH   3   4
ENDBRANCH   2   3
ENDBRANCH   1   2
BRANCH   1   7
ATOM      7  C   UNL     1       2.673  -1.423  -1.309  1.00  0.00    -0.011 C 
ATOM      8  C   UNL     1       2.759  -1.721  -2.812  1.00  0.00     0.008 C 
BRANCH   7   9
ATOM      9  C   UNL     1       1.256  -1.707  -0.734  1.00  0.00    -0.002 C 
ATOM     10  C   UNL     1       1.159  -1.362   0.778  1.00  0.00     0.005 C 
ATOM     11  C   UNL     1       0.028  -0.961  -1.350  1.00  0.00    -0.023 C 
ATOM     12  C   UNL     1      -0.281  -0.915   1.052  1.00  0.00     0.009 C 
ATOM     13  C   UNL     1      -0.482  -1.557  -2.686  1.00  0.00     0.008 C 
ATOM     14  C   UNL     1      -1.032  -1.219  -0.243  1.00  0.00     0.021 C 
ATOM     15  C   UNL     1      -2.008  -1.728  -2.755  1.00  0.00     0.005 C 
ATOM     16  C   UNL     1      -2.355  -0.538  -0.536  1.00  0.00    -0.067 C 
ATOM     17  C   UNL     1      -2.789  -0.657  -1.987  1.00  0.00     0.031 C 
ATOM     18  C   UNL     1      -3.075   0.096   0.411  1.00  0.00    -0.000 C 
ATOM     19  C   UNL     1       0.326   0.550  -1.540  1.00  0.00     0.012 C 
BRANCH  18  20
ATOM     20  C   UNL     1      -4.322   0.806   0.198  1.00  0.00     0.004 C 
ATOM     21  C   UNL     1      -5.120   1.339   1.147  1.00  0.00    -0.040 C 
ATOM     22  C   UNL     1      -6.325   2.178   0.762  1.00  0.00     0.067 C 
ATOM     23  C   UNL     1      -4.907   1.255   2.590  1.00  0.00    -0.023 C 
ATOM     24  C   UNL     1      -6.467   3.480   1.579  1.00  0.00     0.121 C 
ATOM     25  C   UNL     1      -4.916   2.570   3.342  1.00  0.00     0.146 C 
ATOM     26  C   UNL     1      -4.815   0.077   3.231  1.00  0.00     0.015 C 
ATOM     27  C   UNL     1      -5.246   3.770   2.447  1.00  0.00     0.068 C 
BRANCH  24  28
ATOM     28  O   UNL     1      -7.611   3.408   2.438  1.00  0.00    -0.393 OA
ATOM     29  H   UNL     1      -8.388   3.228   1.881  1.00  0.00     0.210 HD
ENDBRANCH  24  28
BRANCH  25  30
ATOM     30  O   UNL     1      -3.632   2.772   3.932  1.00  0.00    -0.388 OA
ATOM     31  H   UNL     1      -3.703   3.565   4.488  1.00  0.00     0.211 HD
ENDBRANCH  25  30
ENDBRANCH  18  20
ENDBRANCH   7   9
ENDBRANCH   1   7
TORSDOF 8
