REMARK SMILES CC1=C(/C=C/C(C)=C\C=C\C(C)=C\C(=O)O)C(C)(C)CCC1
REMARK SMILES IDX 9 1 10 2 8 3 6 4 7 5 5 6 4 7 3 8 2 9 17 10 22 11 20 12 21 13
REMARK SMILES IDX 1 14 18 15 19 16 11 17 13 18 12 19 14 20 15 21 16 22
REMARK H PARENT 16 23
ROOT
ATOM      1  C   UNL     1       2.694   0.683   0.444  1.00  0.00     0.001 C 
ATOM      2  C   UNL     1       4.005   0.790   0.155  1.00  0.00     0.003 C 
ENDROOT
BRANCH   1   3
ATOM      3  C   UNL     1       2.070   1.436   1.517  1.00  0.00     0.003 C 
ATOM      4  C   UNL     1       0.769   1.430   1.879  1.00  0.00    -0.051 C 
ATOM      5  C   UNL     1       0.306   2.348   2.986  1.00  0.00     0.044 C 
BRANCH   4   6
ATOM      6  C   UNL     1      -0.236   0.555   1.285  1.00  0.00     0.004 C 
ATOM      7  C   UNL     1      -1.553   0.809   1.233  1.00  0.00     0.004 C 
BRANCH   7   8
ATOM      8  C   UNL     1      -2.521  -0.120   0.662  1.00  0.00    -0.043 C 
ATOM      9  C   UNL     1      -3.070  -1.097   1.422  1.00  0.00    -0.070 C 
ATOM     10  C   UNL     1      -2.887   0.095  -0.823  1.00  0.00    -0.010 C 
ATOM     11  C   UNL     1      -4.065  -2.095   0.870  1.00  0.00     0.031 C 
ATOM     12  C   UNL     1      -4.166  -0.706  -1.204  1.00  0.00     0.011 C 
ATOM     13  C   UNL     1      -4.138  -2.122  -0.651  1.00  0.00     0.005 C 
ATOM     14  C   UNL     1      -2.791  -1.304   2.896  1.00  0.00     0.040 C 
ATOM     15  C   UNL     1      -1.713  -0.368  -1.715  1.00  0.00     0.016 C 
ATOM     16  C   UNL     1      -3.184   1.579  -1.141  1.00  0.00     0.016 C 
ENDBRANCH   7   8
ENDBRANCH   4   6
ENDBRANCH   1   3
BRANCH   2  17
ATOM     17  C   UNL     1       4.723   0.117  -0.933  1.00  0.00    -0.044 C 
ATOM     18  C   UNL     1       6.033   0.393  -1.088  1.00  0.00     0.096 C 
ATOM     19  C   UNL     1       3.952  -0.848  -1.800  1.00  0.00     0.044 C 
BRANCH  18  20
ATOM     20  C   UNL     1       6.956  -0.092  -2.126  1.00  0.00     0.328 C 
ATOM     21  O   UNL     1       8.157  -0.219  -1.969  1.00  0.00    -0.247 OA
BRANCH  20  22
ATOM     22  O   UNL     1       6.383  -0.284  -3.321  1.00  0.00    -0.478 OA
ATOM     23  H   UNL     1       7.127  -0.539  -3.900  1.00  0.00     0.297 HD
ENDBRANCH  20  22
ENDBRANCH  18  20
ENDBRANCH   2  17
TORSDOF 6
