REMARK SMILES C=CCC1(CC=C)C(=O)NC(=O)NC1=O
REMARK SMILES IDX 4 1 8 2 9 3 10 4 11 5 12 6 13 7 14 8 15 9 3 12 2 13 1 14
REMARK SMILES IDX 5 15 6 16 7 17
REMARK H PARENT 10 10 13 11
ROOT
ATOM      1  C   UNL     1      -0.101  -0.062  -0.201  1.00  0.00     0.135 C 
ATOM      2  C   UNL     1       0.718   0.459   0.971  1.00  0.00     0.244 C 
ATOM      3  O   UNL     1       0.533   0.140   2.144  1.00  0.00    -0.273 OA
ATOM      4  N   UNL     1       1.738   1.310   0.649  1.00  0.00    -0.277 N 
ATOM      5  C   UNL     1       1.638   2.216  -0.357  1.00  0.00     0.328 C 
ATOM      6  O   UNL     1       2.284   3.259  -0.348  1.00  0.00    -0.248 OA
ATOM      7  N   UNL     1       0.731   1.951  -1.336  1.00  0.00    -0.277 N 
ATOM      8  C   UNL     1      -0.260   1.008  -1.271  1.00  0.00     0.244 C 
ATOM      9  O   UNL     1      -1.159   1.011  -2.110  1.00  0.00    -0.273 OA
ATOM     10  H   UNL     1       2.277   1.639   1.440  1.00  0.00     0.174 HD
ATOM     11  H   UNL     1       0.611   2.672  -2.034  1.00  0.00     0.174 HD
ENDROOT
BRANCH   1  12
ATOM     12  C   UNL     1      -1.489  -0.565   0.261  1.00  0.00     0.054 C 
BRANCH  12  13
ATOM     13  C   UNL     1      -2.352   0.487   0.919  1.00  0.00    -0.033 C 
ATOM     14  C   UNL     1      -3.429   1.040   0.347  1.00  0.00     0.004 C 
ENDBRANCH  12  13
ENDBRANCH   1  12
BRANCH   1  15
ATOM     15  C   UNL     1       0.705  -1.199  -0.895  1.00  0.00     0.054 C 
BRANCH  15  16
ATOM     16  C   UNL     1       1.021  -2.396  -0.037  1.00  0.00    -0.033 C 
ATOM     17  C   UNL     1       2.261  -2.747   0.329  1.00  0.00     0.004 C 
ENDBRANCH  15  16
ENDBRANCH   1  15
TORSDOF 4
