REMARK SMILES C=CCN1C(=O)OC(C)C1=O
REMARK SMILES IDX 9 1 8 2 7 3 5 4 6 5 4 6 10 7 11 8 3 9 2 10 1 11
REMARK H PARENT
ROOT
ATOM      1  C   UNL     1       3.143  -0.672   0.045  1.00  0.00     0.064 C 
ATOM      2  C   UNL     1       1.760  -0.824  -0.554  1.00  0.00     0.264 C 
ATOM      3  O   UNL     1       1.485   0.276  -1.427  1.00  0.00    -0.436 OA
ATOM      4  C   UNL     1       0.370   0.925  -0.982  1.00  0.00     0.417 C 
ATOM      5  O   UNL     1      -0.083   1.915  -1.533  1.00  0.00    -0.224 OA
ATOM      6  N   UNL     1      -0.109   0.324   0.128  1.00  0.00    -0.240 N 
ATOM      7  C   UNL     1       0.679  -0.718   0.484  1.00  0.00     0.273 C 
ATOM      8  O   UNL     1       0.555  -1.438   1.462  1.00  0.00    -0.270 OA
ENDROOT
BRANCH   6   9
ATOM      9  C   UNL     1      -1.271   0.767   0.857  1.00  0.00     0.159 C 
BRANCH   9  10
ATOM     10  C   UNL     1      -2.458  -0.034   0.405  1.00  0.00    -0.013 C 
ATOM     11  C   UNL     1      -3.450   0.447  -0.356  1.00  0.00     0.006 C 
ENDBRANCH   9  10
ENDBRANCH   6   9
TORSDOF 2
