REMARK SMILES C=C(C)CNc1ccc(C(C)C(=O)O)cc1
REMARK SMILES IDX 9 1 8 2 7 3 6 4 16 5 15 6 10 7 11 8 12 9 13 10 14 11 5 13
REMARK SMILES IDX 4 15 2 16 1 17 3 18
REMARK H PARENT 14 12 5 14
ROOT
ATOM      1  C   UNL     1      -1.923   0.238  -0.049  1.00  0.00    -0.034 A 
ATOM      2  C   UNL     1      -1.437  -0.277   1.157  1.00  0.00     0.007 A 
ATOM      3  C   UNL     1      -0.089  -0.129   1.502  1.00  0.00     0.026 A 
ATOM      4  C   UNL     1       0.825   0.511   0.652  1.00  0.00     0.034 A 
ATOM      5  C   UNL     1       0.319   1.062  -0.528  1.00  0.00     0.026 A 
ATOM      6  C   UNL     1      -1.029   0.918  -0.884  1.00  0.00     0.007 A 
ENDROOT
BRANCH   1   7
ATOM      7  C   UNL     1      -3.379   0.094  -0.447  1.00  0.00     0.126 C 
ATOM      8  C   UNL     1      -3.787  -1.373  -0.604  1.00  0.00     0.025 C 
BRANCH   7   9
ATOM      9  C   UNL     1      -4.302   0.795   0.532  1.00  0.00     0.310 C 
ATOM     10  O   UNL     1      -4.846   0.306   1.510  1.00  0.00    -0.252 OA
BRANCH   9  11
ATOM     11  O   UNL     1      -4.484   2.100   0.237  1.00  0.00    -0.481 OA
ATOM     12  H   UNL     1      -5.049   2.430   0.966  1.00  0.00     0.296 HD
ENDBRANCH   9  11
ENDBRANCH   7   9
ENDBRANCH   1   7
BRANCH   4  13
ATOM     13  N   UNL     1       2.138   0.670   1.089  1.00  0.00    -0.381 N 
ATOM     14  H   UNL     1       2.393  -0.003   1.807  1.00  0.00     0.160 HD
BRANCH  13  15
ATOM     15  C   UNL     1       3.246   0.937   0.187  1.00  0.00     0.143 C 
BRANCH  15  16
ATOM     16  C   UNL     1       3.863  -0.373  -0.245  1.00  0.00    -0.062 C 
ATOM     17  C   UNL     1       5.007  -0.834   0.292  1.00  0.00     0.009 C 
ATOM     18  C   UNL     1       3.160  -1.121  -1.343  1.00  0.00     0.041 C 
ENDBRANCH  15  16
ENDBRANCH  13  15
ENDBRANCH   4  13
TORSDOF 6
