REMARK SMILES CN(C)CCc1c[nH]c2ccc(CS(=O)(=O)N3CCCC3)cc12
REMARK SMILES IDX 6 1 7 2 8 3 9 4 23 5 22 6 12 7 11 8 10 9 5 11 4 12 2 13 1 14
REMARK SMILES IDX 3 15 13 16 14 17 15 18 16 19 17 20 18 21 21 22 19 23 20 24
REMARK H PARENT 8 10
ROOT
ATOM      1  C   UNL     1       1.866  -0.260  -1.588  1.00  0.00    -0.021 A 
ATOM      2  C   UNL     1       1.944  -0.006  -2.944  1.00  0.00     0.087 A 
ATOM      3  N   UNL     1       0.970   0.899  -3.268  1.00  0.00    -0.361 N 
ATOM      4  C   UNL     1       0.254   1.249  -2.148  1.00  0.00     0.046 A 
ATOM      5  C   UNL     1       0.790   0.535  -1.079  1.00  0.00     0.003 A 
ATOM      6  C   UNL     1       0.224   0.715   0.201  1.00  0.00     0.015 A 
ATOM      7  C   UNL     1      -0.864   1.590   0.380  1.00  0.00    -0.031 A 
ATOM      8  C   UNL     1      -1.359   2.296  -0.724  1.00  0.00     0.007 A 
ATOM      9  C   UNL     1      -0.816   2.137  -2.004  1.00  0.00     0.027 A 
ATOM     10  H   UNL     1       0.797   1.261  -4.195  1.00  0.00     0.166 HD
ENDROOT
BRANCH   1  11
ATOM     11  C   UNL     1       2.744  -1.192  -0.805  1.00  0.00     0.053 C 
BRANCH  11  12
ATOM     12  C   UNL     1       3.919  -0.452  -0.140  1.00  0.00     0.088 C 
BRANCH  12  13
ATOM     13  N   UNL     1       4.757  -1.315   0.719  1.00  0.00    -0.309 NA
ATOM     14  C   UNL     1       5.676  -0.491   1.507  1.00  0.00     0.104 C 
ATOM     15  C   UNL     1       5.515  -2.293  -0.063  1.00  0.00     0.104 C 
ENDBRANCH  12  13
ENDBRANCH  11  12
ENDBRANCH   1  11
BRANCH   7  16
ATOM     16  C   UNL     1      -1.463   1.804   1.748  1.00  0.00     0.189 C 
BRANCH  16  17
ATOM     17  S   UNL     1      -2.355   0.353   2.338  1.00  0.00     0.218 S 
ATOM     18  O   UNL     1      -3.152   0.752   3.482  1.00  0.00    -0.212 OA
ATOM     19  O   UNL     1      -1.429  -0.755   2.460  1.00  0.00    -0.212 OA
BRANCH  17  20
ATOM     20  N   UNL     1      -3.432  -0.008   1.090  1.00  0.00    -0.202 NA
ATOM     21  C   UNL     1      -3.980  -1.391   1.077  1.00  0.00     0.102 C 
ATOM     22  C   UNL     1      -4.539   0.937   0.821  1.00  0.00     0.102 C 
ATOM     23  C   UNL     1      -5.473  -1.231   0.816  1.00  0.00     0.018 C 
ATOM     24  C   UNL     1      -5.563   0.091   0.081  1.00  0.00     0.018 C 
ENDBRANCH  17  20
ENDBRANCH  16  17
ENDBRANCH   7  16
TORSDOF 6
