REMARK SMILES CCN(CCCc1ccccc1)CCCc1ccccc1
REMARK SMILES IDX 3 1 2 2 1 3 4 4 5 5 6 6 7 7 8 8 12 9 9 10 11 11 10 12 13 13
REMARK SMILES IDX 14 14 15 15 16 16 17 17 21 18 18 19 20 20 19 21
REMARK H PARENT
ROOT
ATOM      1  N   UNL     1      -0.084  -1.483  -0.634  1.00  0.00    -0.304 NA
ENDROOT
BRANCH   1   2
ATOM      2  C   UNL     1       0.135  -2.534   0.383  1.00  0.00     0.081 C 
ATOM      3  C   UNL     1      -0.786  -2.386   1.591  1.00  0.00     0.021 C 
ENDBRANCH   1   2
BRANCH   1   4
ATOM      4  C   UNL     1       1.090  -1.370  -1.523  1.00  0.00     0.085 C 
BRANCH   4   5
ATOM      5  C   UNL     1       2.308  -0.698  -0.869  1.00  0.00     0.020 C 
BRANCH   5   6
ATOM      6  C   UNL     1       1.992   0.699  -0.326  1.00  0.00     0.037 C 
BRANCH   6   7
ATOM      7  C   UNL     1       3.224   1.367   0.234  1.00  0.00    -0.048 A 
ATOM      8  C   UNL     1       4.026   2.179  -0.579  1.00  0.00     0.004 A 
ATOM      9  C   UNL     1       3.598   1.159   1.568  1.00  0.00     0.004 A 
ATOM     10  C   UNL     1       5.174   2.781  -0.063  1.00  0.00     0.000 A 
ATOM     11  C   UNL     1       4.746   1.762   2.083  1.00  0.00     0.000 A 
ATOM     12  C   UNL     1       5.534   2.573   1.268  1.00  0.00     0.000 A 
ENDBRANCH   6   7
ENDBRANCH   5   6
ENDBRANCH   4   5
ENDBRANCH   1   4
BRANCH   1  13
ATOM     13  C   UNL     1      -1.313  -1.769  -1.407  1.00  0.00     0.085 C 
BRANCH  13  14
ATOM     14  C   UNL     1      -1.815  -0.612  -2.290  1.00  0.00     0.020 C 
BRANCH  14  15
ATOM     15  C   UNL     1      -2.051   0.709  -1.549  1.00  0.00     0.037 C 
BRANCH  15  16
ATOM     16  C   UNL     1      -3.171   0.651  -0.540  1.00  0.00    -0.048 A 
ATOM     17  C   UNL     1      -2.887   0.657   0.832  1.00  0.00     0.004 A 
ATOM     18  C   UNL     1      -4.507   0.586  -0.956  1.00  0.00     0.004 A 
ATOM     19  C   UNL     1      -3.919   0.594   1.770  1.00  0.00     0.000 A 
ATOM     20  C   UNL     1      -5.539   0.524  -0.017  1.00  0.00     0.000 A 
ATOM     21  C   UNL     1      -5.244   0.528   1.345  1.00  0.00     0.000 A 
ENDBRANCH  15  16
ENDBRANCH  14  15
ENDBRANCH  13  14
ENDBRANCH   1  13
TORSDOF 9
