REMARK SMILES N=C(N)NC(=O)c1nc(Cl)c(N)nc1N
REMARK SMILES IDX 7 1 14 2 13 3 11 4 9 5 10 6 8 7 5 8 3 9 2 10 1 11 4 12 6 13
REMARK SMILES IDX 15 18 12 21
REMARK H PARENT 3 14 3 15 1 16 4 17 15 19 15 20 12 22 12 23
ROOT
ATOM      1  C   UNL     1       0.500   0.127   0.294  1.00  0.00     0.172 A 
ATOM      2  C   UNL     1       1.692   0.118   1.047  1.00  0.00     0.157 A 
ATOM      3  N   UNL     1       2.883   0.322   0.435  1.00  0.00    -0.209 NA
ATOM      4  C   UNL     1       2.878   0.534  -0.898  1.00  0.00     0.163 A 
ATOM      5  C   UNL     1       1.673   0.543  -1.617  1.00  0.00     0.172 A 
ATOM      6  Cl  UNL     1       1.610   0.798  -3.316  1.00  0.00    -0.058 Cl
ATOM      7  N   UNL     1       0.460   0.335  -1.057  1.00  0.00    -0.223 NA
ENDROOT
BRANCH   1   8
ATOM      8  C   UNL     1      -0.835  -0.090   0.934  1.00  0.00     0.280 C 
ATOM      9  N   UNL     1      -3.968  -0.437  -0.904  1.00  0.00    -0.370 N 
ATOM     10  C   UNL     1      -3.159  -0.527   0.176  1.00  0.00     0.192 C 
ATOM     11  N   UNL     1      -3.564  -1.002   1.293  1.00  0.00    -0.269 NA
ATOM     12  N   UNL     1      -1.877  -0.091   0.009  1.00  0.00    -0.291 N 
ATOM     13  O   UNL     1      -0.923  -0.177   2.153  1.00  0.00    -0.267 OA
ATOM     14  H   UNL     1      -3.752   0.304  -1.559  1.00  0.00     0.159 HD
ATOM     15  H   UNL     1      -4.959  -0.483  -0.705  1.00  0.00     0.159 HD
ATOM     16  H   UNL     1      -4.535  -1.304   1.226  1.00  0.00     0.191 HD
ATOM     17  H   UNL     1      -1.586   0.088  -0.944  1.00  0.00     0.173 HD
ENDBRANCH   1   8
BRANCH   2  18
ATOM     18  N   UNL     1       1.750  -0.136   2.427  1.00  0.00    -0.382 N 
ATOM     19  H   UNL     1       1.371  -1.064   2.614  1.00  0.00     0.158 HD
ATOM     20  H   UNL     1       1.084   0.479   2.902  1.00  0.00     0.158 HD
ENDBRANCH   2  18
BRANCH   4  21
ATOM     21  N   UNL     1       4.125   0.786  -1.471  1.00  0.00    -0.381 N 
ATOM     22  H   UNL     1       4.302   0.218  -2.293  1.00  0.00     0.158 HD
ATOM     23  H   UNL     1       4.830   0.660  -0.747  1.00  0.00     0.158 HD
ENDBRANCH   4  21
TORSDOF 3
