REMARK SMILES COc1ccc(C=CC(=O)OCCC(C)C)cc1
REMARK SMILES IDX 9 1 10 2 8 3 7 4 6 5 3 6 4 7 18 8 5 9 17 10 2 11 1 12 11 13
REMARK SMILES IDX 12 14 13 15 14 16 15 17 16 18
REMARK H PARENT
ROOT
ATOM      1  C   UNL     1      -1.287  -1.726   1.229  1.00  0.00     0.330 C 
ATOM      2  O   UNL     1      -1.819  -2.821   1.338  1.00  0.00    -0.247 OA
ENDROOT
BRANCH   1   3
ATOM      3  C   UNL     1       0.116  -1.581   0.787  1.00  0.00     0.094 C 
ATOM      4  C   UNL     1       0.741  -0.404   0.624  1.00  0.00     0.015 C 
BRANCH   4   5
ATOM      5  C   UNL     1       2.138  -0.276   0.189  1.00  0.00    -0.025 A 
ATOM      6  C   UNL     1       4.812   0.085  -0.636  1.00  0.00     0.118 A 
ATOM      7  C   UNL     1       4.250   0.934   0.316  1.00  0.00     0.047 A 
ATOM      8  C   UNL     1       4.030  -0.935  -1.182  1.00  0.00     0.047 A 
ATOM      9  C   UNL     1       2.921   0.756   0.721  1.00  0.00     0.012 A 
ATOM     10  C   UNL     1       2.703  -1.114  -0.778  1.00  0.00     0.012 A 
BRANCH   6  11
ATOM     11  O   UNL     1       6.090   0.147  -1.118  1.00  0.00    -0.497 OA
ATOM     12  C   UNL     1       6.929   1.165  -0.587  1.00  0.00     0.278 C 
ENDBRANCH   6  11
ENDBRANCH   4   5
ENDBRANCH   1   3
BRANCH   1  13
ATOM     13  O   UNL     1      -1.865  -0.526   1.474  1.00  0.00    -0.463 OA
BRANCH  13  14
ATOM     14  C   UNL     1      -3.238  -0.564   1.887  1.00  0.00     0.233 C 
BRANCH  14  15
ATOM     15  C   UNL     1      -4.188  -0.644   0.691  1.00  0.00     0.045 C 
BRANCH  15  16
ATOM     16  C   UNL     1      -4.339   0.674  -0.097  1.00  0.00    -0.014 C 
ATOM     17  C   UNL     1      -5.426   0.510  -1.164  1.00  0.00     0.007 C 
ATOM     18  C   UNL     1      -3.041   1.137  -0.757  1.00  0.00     0.007 C 
ENDBRANCH  15  16
ENDBRANCH  14  15
ENDBRANCH  13  14
ENDBRANCH   1  13
TORSDOF 7
