REMARK SMILES Cc1c(N(C)C)c(=O)n(-c2ccccc2)n1C
REMARK SMILES IDX 3 1 2 2 1 3 16 4 17 5 9 6 7 7 8 8 4 9 5 10 6 11 10 12 11 13
REMARK SMILES IDX 15 14 12 15 14 16 13 17
REMARK H PARENT
ROOT
ATOM      1  C   UNL     1      -1.589  -0.129   0.203  1.00  0.00     0.125 C 
ATOM      2  C   UNL     1      -1.087   1.122   0.274  1.00  0.00     0.061 C 
ATOM      3  C   UNL     1      -1.804   2.353   0.730  1.00  0.00     0.069 C 
ATOM      4  N   UNL     1       0.263   1.228  -0.096  1.00  0.00    -0.283 N 
ATOM      5  C   UNL     1       0.591   2.168  -1.184  1.00  0.00     0.172 C 
ATOM      6  N   UNL     1       0.697  -0.096  -0.352  1.00  0.00    -0.216 N 
ATOM      7  C   UNL     1      -0.392  -0.970  -0.232  1.00  0.00     0.295 C 
ATOM      8  O   UNL     1      -0.423  -2.184  -0.390  1.00  0.00    -0.265 OA
ENDROOT
BRANCH   1   9
ATOM      9  N   UNL     1      -2.857  -0.664   0.436  1.00  0.00    -0.372 N 
ATOM     10  C   UNL     1      -4.081   0.121   0.341  1.00  0.00     0.143 C 
ATOM     11  C   UNL     1      -3.062  -2.103   0.605  1.00  0.00     0.143 C 
ENDBRANCH   1   9
BRANCH   6  12
ATOM     12  C   UNL     1       2.067  -0.458  -0.268  1.00  0.00     0.067 A 
ATOM     13  C   UNL     1       2.504  -1.732  -0.656  1.00  0.00     0.028 A 
ATOM     14  C   UNL     1       3.028   0.445   0.214  1.00  0.00     0.028 A 
ATOM     15  C   UNL     1       3.855  -2.087  -0.578  1.00  0.00     0.002 A 
ATOM     16  C   UNL     1       4.379   0.092   0.295  1.00  0.00     0.002 A 
ATOM     17  C   UNL     1       4.793  -1.175  -0.104  1.00  0.00     0.000 A 
ENDBRANCH   6  12
TORSDOF 2
