REMARK SMILES CN(C)CC(CN1c2ccccc2Sc2ccccc21)N(C)C
REMARK SMILES IDX 4 1 2 2 1 3 3 4 5 5 6 6 7 7 8 8 20 9 9 10 13 11 15 12 19 13
REMARK SMILES IDX 10 14 12 15 14 16 16 17 18 18 11 19 17 20 21 21 22 22 23 23
REMARK H PARENT
ROOT
ATOM      1  C   UNL     1      -1.201   0.973  -0.433  1.00  0.00     0.104 C 
ENDROOT
BRANCH   1   2
ATOM      2  N   UNL     1      -2.387   1.186  -1.297  1.00  0.00    -0.308 NA
ATOM      3  C   UNL     1      -2.541   0.108  -2.274  1.00  0.00     0.105 C 
ATOM      4  C   UNL     1      -2.279   2.473  -1.985  1.00  0.00     0.105 C 
ENDBRANCH   1   2
BRANCH   1   5
ATOM      5  C   UNL     1      -1.195  -0.321   0.459  1.00  0.00     0.090 C 
BRANCH   5   6
ATOM      6  C   UNL     1       0.020  -0.272   1.449  1.00  0.00     0.143 C 
BRANCH   6   7
ATOM      7  N   UNL     1       1.348  -0.329   0.774  1.00  0.00    -0.338 N 
ATOM      8  C   UNL     1       1.615  -1.497   0.010  1.00  0.00     0.055 A 
ATOM      9  C   UNL     1       2.044   0.899   0.626  1.00  0.00     0.055 A 
ATOM     10  C   UNL     1       1.230  -2.773   0.471  1.00  0.00     0.027 A 
ATOM     11  C   UNL     1       2.310  -1.436  -1.214  1.00  0.00     0.036 A 
ATOM     12  C   UNL     1       2.773   1.201  -0.541  1.00  0.00     0.036 A 
ATOM     13  C   UNL     1       2.088   1.842   1.673  1.00  0.00     0.027 A 
ATOM     14  C   UNL     1       1.492  -3.934  -0.264  1.00  0.00     0.002 A 
ATOM     15  C   UNL     1       2.566  -2.606  -1.951  1.00  0.00     0.017 A 
ATOM     16  S   UNL     1       2.847   0.100  -1.940  1.00  0.00    -0.086 SA
ATOM     17  C   UNL     1       3.456   2.423  -0.664  1.00  0.00     0.017 A 
ATOM     18  C   UNL     1       2.774   3.054   1.549  1.00  0.00     0.002 A 
ATOM     19  C   UNL     1       2.157  -3.850  -1.479  1.00  0.00     0.001 A 
ATOM     20  C   UNL     1       3.452   3.349   0.375  1.00  0.00     0.001 A 
ENDBRANCH   6   7
ENDBRANCH   5   6
BRANCH   5  21
ATOM     21  N   UNL     1      -2.514  -0.579   1.110  1.00  0.00    -0.303 NA
ATOM     22  C   UNL     1      -2.901   0.416   2.104  1.00  0.00     0.105 C 
ATOM     23  C   UNL     1      -2.634  -1.933   1.639  1.00  0.00     0.105 C 
ENDBRANCH   5  21
ENDBRANCH   1   5
TORSDOF 5
