REMARK SMILES NC(CCCN1C(=O)NC(c2ccccc2)(c2ccccc2)C1=O)C(=O)O
REMARK SMILES IDX 3 1 2 2 1 3 25 6 26 7 27 8 4 10 5 11 6 12 7 13 23 14 8 15
REMARK SMILES IDX 9 16 10 17 24 18 11 20 12 21 16 22 13 23 15 24 14 25 17 26
REMARK SMILES IDX 18 27 22 28 19 29 21 30 20 31
REMARK H PARENT 1 4 1 5 27 9 9 19
ROOT
ATOM      1  C   UNL     1       4.185   0.020  -0.251  1.00  0.00     0.032 C 
ENDROOT
BRANCH   1   2
ATOM      2  C   UNL     1       4.919   1.365  -0.348  1.00  0.00     0.162 C 
BRANCH   2   3
ATOM      3  N   UNL     1       5.067   2.025   0.963  1.00  0.00    -0.318 NA
ATOM      4  H   UNL     1       5.759   1.510   1.513  1.00  0.00     0.119 HD
ATOM      5  H   UNL     1       4.197   1.992   1.488  1.00  0.00     0.119 HD
ENDBRANCH   2   3
BRANCH   2   6
ATOM      6  C   UNL     1       6.305   1.126  -0.958  1.00  0.00     0.320 C 
ATOM      7  O   UNL     1       7.340   0.895  -0.352  1.00  0.00    -0.251 OA
BRANCH   6   8
ATOM      8  O   UNL     1       6.293   1.141  -2.307  1.00  0.00    -0.480 OA
ATOM      9  H   UNL     1       7.231   0.989  -2.549  1.00  0.00     0.296 HD
ENDBRANCH   6   8
ENDBRANCH   2   6
ENDBRANCH   1   2
BRANCH   1  10
ATOM     10  C   UNL     1       2.704   0.163   0.110  1.00  0.00     0.024 C 
BRANCH  10  11
ATOM     11  C   UNL     1       2.001  -1.197   0.116  1.00  0.00     0.131 C 
BRANCH  11  12
ATOM     12  N   UNL     1       0.601  -1.066   0.459  1.00  0.00    -0.262 N 
ATOM     13  C   UNL     1       0.121  -1.019   1.727  1.00  0.00     0.325 C 
ATOM     14  C   UNL     1      -0.397  -0.781  -0.435  1.00  0.00     0.265 C 
ATOM     15  O   UNL     1       0.762  -1.091   2.762  1.00  0.00    -0.248 OA
ATOM     16  N   UNL     1      -1.235  -0.836   1.685  1.00  0.00    -0.315 N 
ATOM     17  C   UNL     1      -1.741  -0.610   0.343  1.00  0.00     0.172 C 
ATOM     18  O   UNL     1      -0.236  -0.655  -1.645  1.00  0.00    -0.271 OA
ATOM     19  H   UNL     1      -1.749  -0.627   2.529  1.00  0.00     0.167 HD
BRANCH  17  20
ATOM     20  C   UNL     1      -2.733  -1.693  -0.104  1.00  0.00    -0.008 A 
ATOM     21  C   UNL     1      -3.309  -1.623  -1.388  1.00  0.00     0.007 A 
ATOM     22  C   UNL     1      -3.093  -2.776   0.719  1.00  0.00     0.007 A 
ATOM     23  C   UNL     1      -4.215  -2.591  -1.827  1.00  0.00     0.000 A 
ATOM     24  C   UNL     1      -4.000  -3.744   0.277  1.00  0.00     0.000 A 
ATOM     25  C   UNL     1      -4.561  -3.650  -0.993  1.00  0.00     0.000 A 
ENDBRANCH  17  20
BRANCH  17  26
ATOM     26  C   UNL     1      -2.333   0.808   0.297  1.00  0.00    -0.008 A 
ATOM     27  C   UNL     1      -3.535   1.078   0.985  1.00  0.00     0.007 A 
ATOM     28  C   UNL     1      -1.716   1.873  -0.381  1.00  0.00     0.007 A 
ATOM     29  C   UNL     1      -4.098   2.356   0.987  1.00  0.00     0.000 A 
ATOM     30  C   UNL     1      -2.281   3.152  -0.378  1.00  0.00     0.000 A 
ATOM     31  C   UNL     1      -3.470   3.393   0.305  1.00  0.00     0.000 A 
ENDBRANCH  17  26
ENDBRANCH  11  12
ENDBRANCH  10  11
ENDBRANCH   1  10
TORSDOF 9
