REMARK SMILES CCC(C)(CN(C)C)OC(=O)c1ccccc1
REMARK SMILES IDX 3 1 4 2 2 3 1 4 5 5 6 6 7 7 8 8 9 9 10 10 11 11 12 12 13 13
REMARK SMILES IDX 17 14 14 15 16 16 15 17
REMARK H PARENT
ROOT
ATOM      1  C   UNL     1      -0.950  -0.442  -0.063  1.00  0.00     0.122 C 
ATOM      2  C   UNL     1      -1.328  -1.053  -1.419  1.00  0.00     0.058 C 
ENDROOT
BRANCH   1   3
ATOM      3  C   UNL     1      -1.458  -1.354   1.090  1.00  0.00     0.046 C 
ATOM      4  C   UNL     1      -0.899  -2.775   1.075  1.00  0.00     0.008 C 
ENDBRANCH   1   3
BRANCH   1   5
ATOM      5  C   UNL     1      -1.506   1.007   0.150  1.00  0.00     0.132 C 
BRANCH   5   6
ATOM      6  N   UNL     1      -2.977   1.125   0.276  1.00  0.00    -0.305 NA
ATOM      7  C   UNL     1      -3.321   2.201   1.211  1.00  0.00     0.105 C 
ATOM      8  C   UNL     1      -3.606   1.402  -1.019  1.00  0.00     0.105 C 
ENDBRANCH   5   6
ENDBRANCH   1   5
BRANCH   1   9
ATOM      9  O   UNL     1       0.505  -0.432   0.088  1.00  0.00    -0.454 OA
BRANCH   9  10
ATOM     10  C   UNL     1       1.285   0.268  -0.768  1.00  0.00     0.338 C 
ATOM     11  O   UNL     1       0.903   0.947  -1.706  1.00  0.00    -0.246 OA
BRANCH  10  12
ATOM     12  C   UNL     1       2.720   0.103  -0.410  1.00  0.00     0.060 A 
ATOM     13  C   UNL     1       3.142  -0.671   0.681  1.00  0.00     0.015 A 
ATOM     14  C   UNL     1       3.678   0.754  -1.201  1.00  0.00     0.015 A 
ATOM     15  C   UNL     1       4.503  -0.791   0.972  1.00  0.00     0.001 A 
ATOM     16  C   UNL     1       5.037   0.632  -0.906  1.00  0.00     0.001 A 
ATOM     17  C   UNL     1       5.448  -0.140   0.180  1.00  0.00     0.000 A 
ENDBRANCH  10  12
ENDBRANCH   9  10
ENDBRANCH   1   9
TORSDOF 6
