REMARK SMILES O=C1CN2Cc3c(ccc(Cl)c3Cl)N=C2N1
REMARK SMILES IDX 11 1 10 2 9 3 8 4 7 5 14 6 15 7 16 8 2 9 1 10 3 11 4 12 5 13
REMARK SMILES IDX 6 14 12 15 13 16
REMARK H PARENT 16 17
ROOT
ATOM      1  Cl  UNL     1      -5.032  -0.873   0.172  1.00  0.00    -0.083 Cl
ATOM      2  C   UNL     1      -3.421  -0.246   0.227  1.00  0.00     0.060 A 
ATOM      3  C   UNL     1      -3.268   1.092   0.594  1.00  0.00     0.024 A 
ATOM      4  C   UNL     1      -1.994   1.652   0.668  1.00  0.00     0.030 A 
ATOM      5  C   UNL     1      -0.863   0.891   0.368  1.00  0.00     0.074 A 
ATOM      6  N   UNL     1       0.394   1.516   0.488  1.00  0.00    -0.215 NA
ATOM      7  C   UNL     1       1.391   0.836   0.050  1.00  0.00     0.206 C 
ATOM      8  N   UNL     1       2.654   1.293   0.128  1.00  0.00    -0.295 N 
ATOM      9  C   UNL     1       3.541   0.324  -0.260  1.00  0.00     0.246 C 
ATOM     10  O   UNL     1       4.758   0.413  -0.245  1.00  0.00    -0.273 OA
ATOM     11  C   UNL     1       2.721  -0.905  -0.673  1.00  0.00     0.220 C 
ATOM     12  N   UNL     1       1.367  -0.399  -0.514  1.00  0.00    -0.329 N 
ATOM     13  C   UNL     1       0.237  -1.270  -0.316  1.00  0.00     0.159 C 
ATOM     14  C   UNL     1      -1.007  -0.460  -0.021  1.00  0.00     0.017 A 
ATOM     15  C   UNL     1      -2.294  -1.028  -0.075  1.00  0.00     0.066 A 
ATOM     16  Cl  UNL     1      -2.475  -2.703  -0.498  1.00  0.00    -0.082 Cl
ATOM     17  H   UNL     1       2.910   2.184   0.516  1.00  0.00     0.173 HD
ENDROOT
TORSDOF 0
