REMARK SMILES COc1ccc(C(=O)N2CCCC2=O)cc1
REMARK SMILES IDX 3 1 4 2 5 3 6 4 15 5 16 6 2 7 1 8 7 9 8 10 9 11 10 12 13 13
REMARK SMILES IDX 11 14 12 15 14 16
REMARK H PARENT
ROOT
ATOM      1  C   UNL     1      -3.026   0.358   0.246  1.00  0.00     0.118 A 
ATOM      2  C   UNL     1      -2.039   1.033   0.972  1.00  0.00     0.047 A 
ATOM      3  C   UNL     1      -0.714   1.057   0.527  1.00  0.00     0.017 A 
ATOM      4  C   UNL     1      -0.367   0.385  -0.647  1.00  0.00     0.040 A 
ATOM      5  C   UNL     1      -1.355  -0.270  -1.391  1.00  0.00     0.017 A 
ATOM      6  C   UNL     1      -2.680  -0.290  -0.941  1.00  0.00     0.047 A 
ENDROOT
BRANCH   1   7
ATOM      7  O   UNL     1      -4.277   0.418   0.794  1.00  0.00    -0.497 OA
ATOM      8  C   UNL     1      -5.309  -0.290   0.119  1.00  0.00     0.278 C 
ENDBRANCH   1   7
BRANCH   4   9
ATOM      9  C   UNL     1       1.011   0.439  -1.189  1.00  0.00     0.260 C 
ATOM     10  O   UNL     1       1.148   0.699  -2.385  1.00  0.00    -0.269 OA
BRANCH   9  11
ATOM     11  N   UNL     1       2.094   0.173  -0.349  1.00  0.00    -0.279 N 
ATOM     12  C   UNL     1       3.438   0.423  -0.821  1.00  0.00     0.129 C 
ATOM     13  C   UNL     1       2.125  -0.554   0.856  1.00  0.00     0.229 C 
ATOM     14  C   UNL     1       4.308  -0.541  -0.047  1.00  0.00     0.032 C 
ATOM     15  C   UNL     1       3.569  -0.702   1.267  1.00  0.00     0.102 C 
ATOM     16  O   UNL     1       1.188  -0.969   1.517  1.00  0.00    -0.274 OA
ENDBRANCH   9  11
ENDBRANCH   4   9
TORSDOF 3
