REMARK SMILES Nc1cc(Cl)c(NC2=NCCN2)c(Cl)c1
REMARK SMILES IDX 2 1 3 2 4 3 5 4 6 5 13 6 14 7 15 8 1 9 7 12 8 13 9 14 12 15
REMARK SMILES IDX 10 16 11 17
REMARK H PARENT 1 10 1 11 7 18 12 19
ROOT
ATOM      1  C   UNL     1      -3.270   0.052   0.279  1.00  0.00     0.034 A 
ATOM      2  C   UNL     1      -2.369  -0.295   1.287  1.00  0.00     0.048 A 
ATOM      3  C   UNL     1      -1.018   0.069   1.202  1.00  0.00     0.068 A 
ATOM      4  Cl  UNL     1       0.005  -0.370   2.531  1.00  0.00    -0.082 Cl
ATOM      5  C   UNL     1      -0.542   0.833   0.121  1.00  0.00     0.079 A 
ATOM      6  C   UNL     1      -1.477   1.232  -0.851  1.00  0.00     0.068 A 
ATOM      7  Cl  UNL     1      -0.987   2.214  -2.192  1.00  0.00    -0.082 Cl
ATOM      8  C   UNL     1      -2.824   0.866  -0.762  1.00  0.00     0.048 A 
ENDROOT
BRANCH   1   9
ATOM      9  N   UNL     1      -4.635  -0.214   0.431  1.00  0.00    -0.399 N 
ATOM     10  H   UNL     1      -4.838  -1.029   1.003  1.00  0.00     0.156 HD
ATOM     11  H   UNL     1      -5.159  -0.221  -0.439  1.00  0.00     0.156 HD
ENDBRANCH   1   9
BRANCH   5  12
ATOM     12  N   UNL     1       0.834   1.150  -0.038  1.00  0.00    -0.324 N 
ATOM     13  C   UNL     1       1.748   0.172  -0.297  1.00  0.00     0.196 C 
ATOM     14  N   UNL     1       1.571  -1.115  -0.380  1.00  0.00    -0.251 NA
ATOM     15  N   UNL     1       3.015   0.647  -0.487  1.00  0.00    -0.354 N 
ATOM     16  C   UNL     1       2.921  -1.651  -0.697  1.00  0.00     0.167 C 
ATOM     17  C   UNL     1       3.902  -0.499  -0.467  1.00  0.00     0.139 C 
ATOM     18  H   UNL     1       0.956   1.931  -0.675  1.00  0.00     0.170 HD
ATOM     19  H   UNL     1       3.267   1.384   0.161  1.00  0.00     0.163 HD
ENDBRANCH   5  12
TORSDOF 2
