REMARK SMILES COC(=O)C1=C(C)NC(C)=C(C(=O)OCC(C)=O)C1c1ccccc1[N+](=O)[O-]
REMARK SMILES IDX 12 1 13 2 11 3 5 4 6 5 19 6 8 7 9 8 7 9 10 11 3 12 4 13 2 14
REMARK SMILES IDX 1 15 20 16 25 17 21 18 24 19 22 20 23 21 26 22 27 23 28 24
REMARK SMILES IDX 14 25 15 26 16 27 18 28 17 29
REMARK H PARENT 8 10
ROOT
ATOM      1  C   UNL     1       1.618  -0.972  -0.795  1.00  0.00     0.337 C 
ATOM      2  O   UNL     1       1.381  -1.598  -1.816  1.00  0.00    -0.246 OA
ENDROOT
BRANCH   1   3
ATOM      3  C   UNL     1       0.680  -0.901   0.345  1.00  0.00     0.069 C 
ATOM      4  C   UNL     1      -1.740  -0.863   1.123  1.00  0.00     0.069 C 
ATOM      5  C   UNL     1      -1.284  -0.938   2.393  1.00  0.00     0.023 C 
ATOM      6  C   UNL     1      -0.790  -0.731  -0.063  1.00  0.00     0.105 C 
ATOM      7  N   UNL     1       0.082  -0.908   2.635  1.00  0.00    -0.362 N 
ATOM      8  C   UNL     1       1.049  -0.991   1.643  1.00  0.00     0.023 C 
ATOM      9  C   UNL     1      -2.164  -1.070   3.611  1.00  0.00     0.065 C 
ATOM     10  H   UNL     1       0.379  -1.102   3.590  1.00  0.00     0.166 HD
ATOM     11  C   UNL     1       2.458  -1.233   2.123  1.00  0.00     0.065 C 
BRANCH   4  12
ATOM     12  C   UNL     1      -3.175  -1.069   0.837  1.00  0.00     0.336 C 
ATOM     13  O   UNL     1      -3.801  -2.058   1.185  1.00  0.00    -0.246 OA
BRANCH  12  14
ATOM     14  O   UNL     1      -3.671   0.008   0.185  1.00  0.00    -0.466 OA
ATOM     15  C   UNL     1      -5.050  -0.115  -0.164  1.00  0.00     0.282 C 
ENDBRANCH  12  14
ENDBRANCH   4  12
BRANCH   6  16
ATOM     16  C   UNL     1      -0.969   0.599  -0.811  1.00  0.00     0.042 A 
ATOM     17  C   UNL     1      -1.362   0.701  -2.162  1.00  0.00     0.273 A 
ATOM     18  C   UNL     1      -0.687   1.806  -0.133  1.00  0.00     0.012 A 
ATOM     19  C   UNL     1      -1.449   1.944  -2.813  1.00  0.00     0.086 A 
ATOM     20  C   UNL     1      -0.779   3.043  -0.778  1.00  0.00     0.001 A 
ATOM     21  C   UNL     1      -1.155   3.113  -2.116  1.00  0.00     0.007 A 
BRANCH  17  22
ATOM     22  N   UNL     1      -1.723  -0.470  -2.954  1.00  0.00     0.063 N 
ATOM     23  O   UNL     1      -2.567  -1.241  -2.478  1.00  0.00    -0.258 OA
ATOM     24  O   UNL     1      -1.197  -0.583  -4.070  1.00  0.00    -0.258 OA
ENDBRANCH  17  22
ENDBRANCH   6  16
ENDBRANCH   1   3
BRANCH   1  25
ATOM     25  O   UNL     1       2.690  -0.171  -0.587  1.00  0.00    -0.454 OA
BRANCH  25  26
ATOM     26  C   UNL     1       3.561  -0.083  -1.714  1.00  0.00     0.308 C 
BRANCH  26  27
ATOM     27  C   UNL     1       4.751   0.786  -1.354  1.00  0.00     0.167 C 
ATOM     28  O   UNL     1       5.099   1.735  -2.057  1.00  0.00    -0.296 OA
ATOM     29  C   UNL     1       5.520   0.413  -0.113  1.00  0.00     0.091 C 
ENDBRANCH  26  27
ENDBRANCH  25  26
ENDBRANCH   1  25
TORSDOF 8
