REMARK SMILES CC(C)(N)NC(=O)C[C@H]1CC[C@]2(CC1)OOC1(O2)[C@H]2CC3CC(C[C@H]1C3)C2
REMARK SMILES IDX 5 1 6 2 7 3 2 5 1 6 3 7 4 8 8 11 9 12 14 13 10 14 13 15
REMARK SMILES IDX 11 16 12 17 15 18 18 19 16 20 17 21 19 22 25 23 27 24 20 25
REMARK SMILES IDX 26 26 24 27 23 28 21 29 22 30
REMARK H PARENT 5 4 4 9 4 10
ROOT
ATOM      1  N   UNL     1       5.056  -1.017   0.637  1.00  0.00    -0.339 N 
ATOM      2  C   UNL     1       3.929  -0.430   0.097  1.00  0.00     0.221 C 
ATOM      3  O   UNL     1       3.932   0.272  -0.906  1.00  0.00    -0.275 OA
ATOM      4  H   UNL     1       4.886  -1.819   1.227  1.00  0.00     0.165 HD
ENDROOT
BRANCH   1   5
ATOM      5  C   UNL     1       6.375  -0.979   0.051  1.00  0.00     0.082 C 
ATOM      6  C   UNL     1       7.387  -1.561   1.049  1.00  0.00     0.052 C 
ATOM      7  C   UNL     1       6.841   0.424  -0.360  1.00  0.00     0.052 C 
BRANCH   5   8
ATOM      8  N   UNL     1       6.291  -1.874  -1.086  1.00  0.00    -0.309 NA
ATOM      9  H   UNL     1       7.166  -1.837  -1.606  1.00  0.00     0.121 HD
ATOM     10  H   UNL     1       5.592  -1.478  -1.718  1.00  0.00     0.121 HD
ENDBRANCH   5   8
ENDBRANCH   1   5
BRANCH   2  11
ATOM     11  C   UNL     1       2.673  -0.773   0.888  1.00  0.00     0.103 C 
BRANCH  11  12
ATOM     12  C   UNL     1       1.371  -0.093   0.434  1.00  0.00    -0.001 C 
ATOM     13  C   UNL     1       1.419   1.436   0.536  1.00  0.00     0.010 C 
ATOM     14  C   UNL     1       0.906  -0.566  -0.957  1.00  0.00     0.010 C 
ATOM     15  C   UNL     1       0.056   2.083   0.257  1.00  0.00     0.069 C 
ATOM     16  C   UNL     1       0.037   0.461  -1.689  1.00  0.00     0.069 C 
ATOM     17  C   UNL     1      -0.812   1.292  -0.733  1.00  0.00     0.204 C 
ATOM     18  O   UNL     1      -1.619   2.197  -1.483  1.00  0.00    -0.198 OA
ATOM     19  O   UNL     1      -1.674   0.413  -0.007  1.00  0.00    -0.312 OA
ATOM     20  O   UNL     1      -2.869   2.245  -0.736  1.00  0.00    -0.197 OA
ATOM     21  C   UNL     1      -2.990   0.931  -0.195  1.00  0.00     0.210 C 
ATOM     22  C   UNL     1      -3.722   0.986   1.163  1.00  0.00     0.053 C 
ATOM     23  C   UNL     1      -3.786   0.023  -1.163  1.00  0.00     0.053 C 
ATOM     24  C   UNL     1      -5.143   1.552   0.966  1.00  0.00     0.013 C 
ATOM     25  C   UNL     1      -3.831  -0.434   1.753  1.00  0.00     0.013 C 
ATOM     26  C   UNL     1      -3.894  -1.396  -0.569  1.00  0.00     0.013 C 
ATOM     27  C   UNL     1      -5.207   0.590  -1.356  1.00  0.00     0.013 C 
ATOM     28  C   UNL     1      -5.936   0.654  -0.001  1.00  0.00    -0.010 C 
ATOM     29  C   UNL     1      -4.615  -1.344   0.790  1.00  0.00    -0.010 C 
ATOM     30  C   UNL     1      -6.026  -0.765   0.588  1.00  0.00     0.007 C 
ENDBRANCH  11  12
ENDBRANCH   2  11
TORSDOF 4
