REMARK SMILES COC(=O)N[C@H](C(=O)N[C@@H](Cc1ccccc1)[C@@H](O)CN(Cc1ccc(-c2ccccn2)cc1)NC(=O)[C@@H](NC(=O)OC)C(C)(C)C)C(C)(C)C
REMARK SMILES IDX 18 1 10 2 9 3 7 4 8 5 6 7 5 8 3 9 4 10 2 12 1 13 48 14 49 15
REMARK SMILES IDX 50 16 51 17 11 18 12 19 13 20 17 21 14 22 16 23 15 24 19 25
REMARK SMILES IDX 20 27 21 28 22 29 23 30 24 31 34 32 25 33 33 34 26 35 27 36
REMARK SMILES IDX 28 37 32 38 29 39 31 40 30 41 35 42 36 43 37 44 38 46 39 47
REMARK SMILES IDX 40 48 41 49 42 51 43 52 44 53 45 54 46 55 47 56
REMARK H PARENT 9 6 5 11 19 26 35 45 39 50
ROOT
ATOM      1  C   UNL     1      -1.777   1.010   1.588  1.00  0.00     0.153 C 
ENDROOT
BRANCH   1   2
ATOM      2  C   UNL     1      -2.485  -0.194   0.908  1.00  0.00     0.116 C 
BRANCH   2   3
ATOM      3  N   UNL     1      -3.931   0.025   0.679  1.00  0.00    -0.349 N 
ATOM      4  C   UNL     1      -4.437   1.035  -0.112  1.00  0.00     0.243 C 
ATOM      5  O   UNL     1      -3.736   1.965  -0.499  1.00  0.00    -0.273 OA
ATOM      6  H   UNL     1      -4.503  -0.809   0.734  1.00  0.00     0.163 HD
BRANCH   4   7
ATOM      7  C   UNL     1      -5.941   0.888  -0.487  1.00  0.00     0.180 C 
BRANCH   7   8
ATOM      8  N   UNL     1      -6.519  -0.309   0.147  1.00  0.00    -0.309 N 
ATOM      9  C   UNL     1      -6.674  -1.502  -0.494  1.00  0.00     0.407 C 
ATOM     10  O   UNL     1      -6.392  -1.716  -1.661  1.00  0.00    -0.225 OA
ATOM     11  H   UNL     1      -6.732  -0.308   1.137  1.00  0.00     0.167 HD
BRANCH   9  12
ATOM     12  O   UNL     1      -7.141  -2.415   0.390  1.00  0.00    -0.453 OA
ATOM     13  C   UNL     1      -7.298  -3.733  -0.146  1.00  0.00     0.284 C 
ENDBRANCH   9  12
ENDBRANCH   7   8
BRANCH   7  14
ATOM     14  C   UNL     1      -6.798   2.163  -0.193  1.00  0.00    -0.009 C 
ATOM     15  C   UNL     1      -6.343   3.355  -1.060  1.00  0.00     0.013 C 
ATOM     16  C   UNL     1      -8.277   1.877  -0.554  1.00  0.00     0.013 C 
ATOM     17  C   UNL     1      -6.720   2.581   1.285  1.00  0.00     0.013 C 
ENDBRANCH   7  14
ENDBRANCH   4   7
ENDBRANCH   2   3
BRANCH   2  18
ATOM     18  C   UNL     1      -1.787  -0.687  -0.378  1.00  0.00     0.063 C 
BRANCH  18  19
ATOM     19  C   UNL     1      -2.172  -2.112  -0.719  1.00  0.00    -0.046 A 
ATOM     20  C   UNL     1      -1.597  -3.180  -0.014  1.00  0.00     0.004 A 
ATOM     21  C   UNL     1      -3.120  -2.387  -1.710  1.00  0.00     0.004 A 
ATOM     22  C   UNL     1      -1.967  -4.494  -0.292  1.00  0.00     0.000 A 
ATOM     23  C   UNL     1      -3.482  -3.706  -1.993  1.00  0.00     0.000 A 
ATOM     24  C   UNL     1      -2.907  -4.757  -1.285  1.00  0.00     0.000 A 
ENDBRANCH  18  19
ENDBRANCH   2  18
ENDBRANCH   1   2
BRANCH   1  25
ATOM     25  O   UNL     1      -2.600   1.453   2.690  1.00  0.00    -0.390 OA
ATOM     26  H   UNL     1      -3.362   1.898   2.266  1.00  0.00     0.211 HD
ENDBRANCH   1  25
BRANCH   1  27
ATOM     27  C   UNL     1      -0.388   0.642   2.168  1.00  0.00     0.142 C 
BRANCH  27  28
ATOM     28  N   UNL     1       0.706   0.901   1.214  1.00  0.00    -0.214 NA
BRANCH  28  29
ATOM     29  C   UNL     1       1.409   2.164   1.527  1.00  0.00     0.143 C 
BRANCH  29  30
ATOM     30  C   UNL     1       2.590   2.442   0.621  1.00  0.00    -0.032 A 
ATOM     31  C   UNL     1       2.410   2.717  -0.738  1.00  0.00     0.006 A 
ATOM     32  C   UNL     1       3.897   2.410   1.134  1.00  0.00     0.006 A 
ATOM     33  C   UNL     1       3.517   2.933  -1.567  1.00  0.00     0.010 A 
ATOM     34  C   UNL     1       4.997   2.617   0.294  1.00  0.00     0.010 A 
ATOM     35  C   UNL     1       4.834   2.868  -1.084  1.00  0.00     0.000 A 
BRANCH  35  36
ATOM     36  C   UNL     1       5.986   3.075  -1.988  1.00  0.00     0.070 A 
ATOM     37  C   UNL     1       7.213   2.433  -1.812  1.00  0.00     0.029 A 
ATOM     38  N   UNL     1       5.778   3.933  -3.020  1.00  0.00    -0.256 NA
ATOM     39  C   UNL     1       8.255   2.688  -2.703  1.00  0.00     0.004 A 
ATOM     40  C   UNL     1       6.804   4.166  -3.867  1.00  0.00     0.111 A 
ATOM     41  C   UNL     1       8.051   3.578  -3.746  1.00  0.00     0.020 A 
ENDBRANCH  35  36
ENDBRANCH  29  30
ENDBRANCH  28  29
BRANCH  28  42
ATOM     42  N   UNL     1       1.559  -0.217   1.027  1.00  0.00    -0.287 N 
ATOM     43  C   UNL     1       2.514  -0.620   1.965  1.00  0.00     0.257 C 
ATOM     44  O   UNL     1       2.560  -0.205   3.118  1.00  0.00    -0.271 OA
ATOM     45  H   UNL     1       1.734  -0.480   0.057  1.00  0.00     0.185 HD
BRANCH  43  46
ATOM     46  C   UNL     1       3.486  -1.679   1.367  1.00  0.00     0.181 C 
BRANCH  46  47
ATOM     47  N   UNL     1       4.086  -1.084   0.169  1.00  0.00    -0.309 N 
ATOM     48  C   UNL     1       3.827  -1.479  -1.103  1.00  0.00     0.407 C 
ATOM     49  O   UNL     1       3.076  -2.389  -1.413  1.00  0.00    -0.225 OA
ATOM     50  H   UNL     1       4.595  -0.211   0.239  1.00  0.00     0.167 HD
BRANCH  48  51
ATOM     51  O   UNL     1       4.513  -0.684  -1.958  1.00  0.00    -0.453 OA
ATOM     52  C   UNL     1       4.326  -1.005  -3.337  1.00  0.00     0.284 C 
ENDBRANCH  48  51
ENDBRANCH  46  47
BRANCH  46  53
ATOM     53  C   UNL     1       4.577  -2.249   2.326  1.00  0.00    -0.009 C 
ATOM     54  C   UNL     1       3.927  -2.900   3.564  1.00  0.00     0.013 C 
ATOM     55  C   UNL     1       5.583  -1.178   2.788  1.00  0.00     0.013 C 
ATOM     56  C   UNL     1       5.369  -3.359   1.593  1.00  0.00     0.013 C 
ENDBRANCH  46  53
ENDBRANCH  43  46
ENDBRANCH  28  42
ENDBRANCH  27  28
ENDBRANCH   1  27
TORSDOF 19
