REMARK SMILES COc1ccc(CNc2nc(N3CCC[C@H]3CO)ncc2C(=O)NCc2ncccn2)cc1Cl
REMARK SMILES IDX 9 1 10 2 11 3 19 4 20 5 21 6 8 7 7 9 6 10 3 11 33 12 4 13
REMARK SMILES IDX 32 14 5 15 34 16 2 17 1 18 22 19 23 20 24 21 25 23 26 24
REMARK SMILES IDX 27 25 31 26 28 27 30 28 29 29 12 30 13 31 16 32 14 33 15 34
REMARK SMILES IDX 17 35 18 36
REMARK H PARENT 8 8 24 22 18 37
ROOT
ATOM      1  C   UNL     1      -0.519  -0.345  -0.619  1.00  0.00     0.144 A 
ATOM      2  N   UNL     1      -0.879  -1.610  -0.311  1.00  0.00    -0.195 NA
ATOM      3  C   UNL     1      -2.128  -2.027  -0.582  1.00  0.00     0.227 A 
ATOM      4  N   UNL     1      -3.053  -1.234  -1.145  1.00  0.00    -0.220 NA
ATOM      5  C   UNL     1      -2.683   0.028  -1.440  1.00  0.00     0.133 A 
ATOM      6  C   UNL     1      -1.430   0.533  -1.185  1.00  0.00     0.100 A 
ENDROOT
BRANCH   1   7
ATOM      7  N   UNL     1       0.761   0.104  -0.243  1.00  0.00    -0.365 N 
ATOM      8  H   UNL     1       1.123   0.744  -0.958  1.00  0.00     0.162 HD
BRANCH   7   9
ATOM      9  C   UNL     1       1.708  -0.942   0.099  1.00  0.00     0.150 C 
BRANCH   9  10
ATOM     10  C   UNL     1       3.038  -0.305   0.427  1.00  0.00    -0.027 A 
ATOM     11  C   UNL     1       5.511   0.926   1.038  1.00  0.00     0.137 A 
ATOM     12  C   UNL     1       4.449   0.951   1.957  1.00  0.00     0.083 A 
ATOM     13  C   UNL     1       5.316   0.289  -0.192  1.00  0.00     0.048 A 
ATOM     14  C   UNL     1       3.226   0.345   1.654  1.00  0.00     0.030 A 
ATOM     15  C   UNL     1       4.091  -0.318  -0.496  1.00  0.00     0.009 A 
ATOM     16  Cl  UNL     1       4.606   1.729   3.495  1.00  0.00    -0.080 Cl
BRANCH  11  17
ATOM     17  O   UNL     1       6.675   1.541   1.419  1.00  0.00    -0.495 OA
ATOM     18  C   UNL     1       7.770   1.497   0.516  1.00  0.00     0.278 C 
ENDBRANCH  11  17
ENDBRANCH   9  10
ENDBRANCH   7   9
ENDBRANCH   1   7
BRANCH   6  19
ATOM     19  C   UNL     1      -1.069   1.904  -1.580  1.00  0.00     0.256 C 
ATOM     20  O   UNL     1       0.033   2.121  -2.073  1.00  0.00    -0.269 OA
ATOM     21  N   UNL     1      -2.026   2.874  -1.364  1.00  0.00    -0.345 N 
ATOM     22  H   UNL     1      -2.725   2.683  -0.655  1.00  0.00     0.164 HD
BRANCH  21  23
ATOM     23  C   UNL     1      -1.662   4.284  -1.456  1.00  0.00     0.193 C 
BRANCH  23  24
ATOM     24  C   UNL     1      -1.221   4.855  -0.122  1.00  0.00     0.147 A 
ATOM     25  N   UNL     1      -1.814   4.363   0.993  1.00  0.00    -0.239 NA
ATOM     26  N   UNL     1      -0.312   5.849  -0.127  1.00  0.00    -0.239 NA
ATOM     27  C   UNL     1      -1.408   4.889   2.164  1.00  0.00     0.115 A 
ATOM     28  C   UNL     1       0.052   6.334   1.074  1.00  0.00     0.115 A 
ATOM     29  C   UNL     1      -0.467   5.885   2.265  1.00  0.00     0.040 A 
ENDBRANCH  23  24
ENDBRANCH  21  23
ENDBRANCH   6  19
BRANCH   3  30
ATOM     30  N   UNL     1      -2.482  -3.309  -0.242  1.00  0.00    -0.335 N 
ATOM     31  C   UNL     1      -1.441  -4.277   0.061  1.00  0.00     0.120 C 
ATOM     32  C   UNL     1      -3.652  -3.933  -0.861  1.00  0.00     0.111 C 
ATOM     33  C   UNL     1      -2.203  -5.596   0.116  1.00  0.00     0.024 C 
ATOM     34  C   UNL     1      -3.257  -5.419  -0.969  1.00  0.00     0.029 C 
BRANCH  32  35
ATOM     35  C   UNL     1      -4.903  -3.727   0.007  1.00  0.00     0.181 C 
BRANCH  35  36
ATOM     36  O   UNL     1      -6.069  -4.230  -0.646  1.00  0.00    -0.394 OA
ATOM     37  H   UNL     1      -6.246  -3.637  -1.397  1.00  0.00     0.210 HD
ENDBRANCH  35  36
ENDBRANCH  32  35
ENDBRANCH   3  30
TORSDOF 10
