REMARK SMILES C=CCN1Cc2ccccc2-c2ccccc2C1
REMARK SMILES IDX 3 1 2 2 1 3 4 4 5 5 18 6 6 7 17 8 7 9 11 10 12 11 16 12 8 13
REMARK SMILES IDX 10 14 13 15 15 16 9 17 14 18
REMARK H PARENT
ROOT
ATOM      1  C   UNL     1       2.824   0.390  -0.503  1.00  0.00     0.112 C 
ENDROOT
BRANCH   1   2
ATOM      2  C   UNL     1       3.585  -0.863  -0.162  1.00  0.00    -0.019 C 
ATOM      3  C   UNL     1       4.601  -0.920   0.710  1.00  0.00     0.005 C 
ENDBRANCH   1   2
BRANCH   1   4
ATOM      4  N   UNL     1       1.395   0.260  -0.201  1.00  0.00    -0.291 NA
ATOM      5  C   UNL     1       0.794   1.582  -0.000  1.00  0.00     0.121 C 
ATOM      6  C   UNL     1       0.670  -0.518  -1.202  1.00  0.00     0.121 C 
ATOM      7  C   UNL     1      -0.720   1.748   0.052  1.00  0.00    -0.026 A 
ATOM      8  C   UNL     1      -0.354  -1.348  -0.471  1.00  0.00    -0.026 A 
ATOM      9  C   UNL     1      -1.144   3.104   0.009  1.00  0.00     0.006 A 
ATOM     10  C   UNL     1      -1.698   0.728   0.133  1.00  0.00    -0.014 A 
ATOM     11  C   UNL     1      -1.415  -0.732   0.222  1.00  0.00    -0.014 A 
ATOM     12  C   UNL     1      -0.173  -2.746  -0.403  1.00  0.00     0.006 A 
ATOM     13  C   UNL     1      -2.488   3.464   0.005  1.00  0.00     0.000 A 
ATOM     14  C   UNL     1      -3.058   1.136   0.094  1.00  0.00     0.009 A 
ATOM     15  C   UNL     1      -2.238  -1.569   1.010  1.00  0.00     0.009 A 
ATOM     16  C   UNL     1      -1.024  -3.544   0.356  1.00  0.00     0.000 A 
ATOM     17  C   UNL     1      -3.451   2.474   0.036  1.00  0.00     0.001 A 
ATOM     18  C   UNL     1      -2.053  -2.953   1.073  1.00  0.00     0.001 A 
ENDBRANCH   1   4
TORSDOF 2
