REMARK SMILES CN1CCC(=C2c3ccccc3CCc3cccnc32)CC1
REMARK SMILES IDX 1 1 2 2 3 3 4 4 5 5 21 6 22 7 6 8 7 9 8 10 12 11 9 12 11 13
REMARK SMILES IDX 10 14 13 15 20 17 15 18 19 19 16 20 18 21 17 22 14 23
REMARK H PARENT
REMARK Flexibility Score:    8.900
ROOT
ATOM      1  C   UNL     1       4.751   0.927   0.745  1.00  0.00     0.105 C 
ATOM      2  N   UNL     1       3.945  -0.110   0.107  1.00  0.00    -0.306 NA
ATOM      3  C   UNL     1       3.194  -0.910   1.089  1.00  0.00     0.088 C 
ATOM      4  C   UNL     1       1.720  -0.502   1.257  1.00  0.00     0.047 C 
ATOM      5  C   UNL     1       0.948  -0.586  -0.056  1.00  0.00    -0.058 C 
ATOM      6  C   UNL     1       1.858  -0.406  -1.269  1.00  0.00     0.047 C 
ATOM      7  C   UNL     1       3.076   0.471  -0.932  1.00  0.00     0.088 C 
ATOM      8  C   UNL     1      -0.402  -0.744  -0.144  1.00  0.00     0.007 C 
ENDROOT
BRANCH   8   9
ATOM      9  C   UNL     1      -1.218  -0.787   1.094  1.00  0.00    -0.013 A 
ATOM     10  C   UNL     1      -1.246  -1.925   1.910  1.00  0.00     0.009 A 
ATOM     11  C   UNL     1      -2.017   0.324   1.414  1.00  0.00    -0.040 A 
ATOM     12  C   UNL     1      -2.028  -1.942   3.065  1.00  0.00     0.001 A 
ATOM     13  C   UNL     1      -2.797   0.298   2.577  1.00  0.00     0.004 A 
ATOM     14  C   UNL     1      -2.797  -0.828   3.401  1.00  0.00     0.000 A 
BRANCH  11  15
ATOM     15  C   UNL     1      -2.058   1.502   0.473  1.00  0.00     0.041 CG0
ATOM     16  G   UNL     1      -2.757   1.153  -0.848  1.00  0.00     0.000 G0
ENDBRANCH  11  15
ENDBRANCH   8   9
BRANCH   8  17
ATOM     17  C   UNL     1      -1.088  -0.749  -1.466  1.00  0.00     0.074 A 
ATOM     18  C   UNL     1      -2.148   0.117  -1.772  1.00  0.00    -0.021 A 
ATOM     19  N   UNL     1      -0.625  -1.685  -2.341  1.00  0.00    -0.256 NA
ATOM     20  C   UNL     1      -2.727  -0.011  -3.048  1.00  0.00     0.007 A 
ATOM     21  C   UNL     1      -1.211  -1.766  -3.551  1.00  0.00     0.112 A 
ATOM     22  C   UNL     1      -2.255  -0.958  -3.949  1.00  0.00     0.020 A 
BRANCH  18  23
ATOM     23  C   UNL     1      -2.757   1.153  -0.848  1.00  0.00     0.042 CG0
ATOM     24  G   UNL     1      -2.058   1.502   0.473  1.00  0.00     0.000 G0
ENDBRANCH  18  23
ENDBRANCH   8  17
TORSDOF 0
