REMARK SMILES CCOC(=O)OC(C)OC(=O)[C@@H]1N2C(=O)[C@@H](NC(=O)[C@H](N)c3ccccc3)[C@H]2SC1(C)C
REMARK SMILES IDX 9 1 7 2 8 3 6 4 4 5 5 6 3 7 2 8 1 9 10 10 11 11 12 12 13 13
REMARK SMILES IDX 30 14 28 15 14 16 29 17 16 18 15 19 31 20 32 21 17 22 18 23
REMARK SMILES IDX 19 24 20 26 21 27 22 30 23 31 27 32 24 33 26 34 25 35
REMARK H PARENT 17 25 21 28 21 29
ROOT
ATOM      1  O   UNL     1      -2.707  -0.063   0.170  1.00  0.00    -0.424 OA
ENDROOT
BRANCH   1   2
ATOM      2  C   UNL     1      -4.136  -0.056   0.335  1.00  0.00     0.370 C 
ATOM      3  C   UNL     1      -4.475  -0.225   1.815  1.00  0.00     0.102 C 
BRANCH   2   4
ATOM      4  O   UNL     1      -4.652  -1.188  -0.378  1.00  0.00    -0.394 OA
BRANCH   4   5
ATOM      5  C   UNL     1      -5.957  -1.099  -0.724  1.00  0.00     0.511 C 
ATOM      6  O   UNL     1      -6.691  -0.148  -0.510  1.00  0.00    -0.203 OA
BRANCH   5   7
ATOM      7  O   UNL     1      -6.313  -2.260  -1.328  1.00  0.00    -0.435 OA
BRANCH   7   8
ATOM      8  C   UNL     1      -7.680  -2.349  -1.748  1.00  0.00     0.233 C 
ATOM      9  C   UNL     1      -8.552  -2.827  -0.603  1.00  0.00     0.049 C 
ENDBRANCH   7   8
ENDBRANCH   5   7
ENDBRANCH   4   5
ENDBRANCH   2   4
ENDBRANCH   1   2
BRANCH   1  10
ATOM     10  C   UNL     1      -2.067   1.097   0.468  1.00  0.00     0.333 C 
ATOM     11  O   UNL     1      -2.619   2.101   0.907  1.00  0.00    -0.250 OA
BRANCH  10  12
ATOM     12  C   UNL     1      -0.553   0.989   0.273  1.00  0.00     0.212 C 
ATOM     13  N   UNL     1      -0.143  -0.229  -0.429  1.00  0.00    -0.311 N 
ATOM     14  C   UNL     1       0.224   1.044   1.607  1.00  0.00     0.044 C 
ATOM     15  C   UNL     1       1.014  -0.980   0.093  1.00  0.00     0.176 C 
ATOM     16  C   UNL     1       0.383  -0.118  -1.688  1.00  0.00     0.250 C 
ATOM     17  S   UNL     1       1.841   0.224   1.204  1.00  0.00    -0.125 SA
ATOM     18  C   UNL     1       1.523  -1.107  -1.362  1.00  0.00     0.205 C 
ATOM     19  O   UNL     1       0.091   0.618  -2.603  1.00  0.00    -0.272 OA
ATOM     20  C   UNL     1      -0.426   0.258   2.755  1.00  0.00     0.026 C 
ATOM     21  C   UNL     1       0.509   2.482   2.046  1.00  0.00     0.026 C 
BRANCH  18  22
ATOM     22  N   UNL     1       2.906  -0.640  -1.651  1.00  0.00    -0.340 N 
ATOM     23  C   UNL     1       3.993  -1.450  -1.396  1.00  0.00     0.242 C 
ATOM     24  O   UNL     1       3.860  -2.599  -0.968  1.00  0.00    -0.273 OA
ATOM     25  H   UNL     1       3.076   0.345  -1.843  1.00  0.00     0.164 HD
BRANCH  23  26
ATOM     26  C   UNL     1       5.372  -0.828  -1.745  1.00  0.00     0.172 C 
BRANCH  26  27
ATOM     27  N   UNL     1       6.439  -1.837  -1.587  1.00  0.00    -0.316 NA
ATOM     28  H   UNL     1       6.472  -2.098  -0.601  1.00  0.00     0.119 HD
ATOM     29  H   UNL     1       6.123  -2.689  -2.052  1.00  0.00     0.119 HD
ENDBRANCH  26  27
BRANCH  26  30
ATOM     30  C   UNL     1       5.681   0.412  -0.927  1.00  0.00    -0.022 A 
ATOM     31  C   UNL     1       6.141   1.577  -1.563  1.00  0.00     0.006 A 
ATOM     32  C   UNL     1       5.539   0.425   0.471  1.00  0.00     0.006 A 
ATOM     33  C   UNL     1       6.432   2.728  -0.822  1.00  0.00     0.000 A 
ATOM     34  C   UNL     1       5.826   1.578   1.209  1.00  0.00     0.000 A 
ATOM     35  C   UNL     1       6.273   2.727   0.563  1.00  0.00     0.000 A 
ENDBRANCH  26  30
ENDBRANCH  23  26
ENDBRANCH  18  22
ENDBRANCH  10  12
ENDBRANCH   1  10
TORSDOF 11
