REMARK SMILES CC1(c2ccc3ccc4ccccc4c3c2)NC(=O)NC1=O
REMARK SMILES IDX 1 1 2 2 17 3 18 4 19 5 20 6 21 7 22 8 3 11 16 12 4 13 15 14
REMARK SMILES IDX 5 15 14 16 6 17 13 18 9 19 7 20 12 21 10 22 8 23 11 24
REMARK H PARENT 17 9 20 10
ROOT
ATOM      1  C   UNL     1      -3.821  -0.798  -0.285  1.00  0.00     0.051 C 
ATOM      2  C   UNL     1      -2.825   0.187   0.330  1.00  0.00     0.143 C 
ATOM      3  N   UNL     1      -2.822   1.418  -0.440  1.00  0.00    -0.320 N 
ATOM      4  C   UNL     1      -3.276   2.496   0.275  1.00  0.00     0.322 C 
ATOM      5  O   UNL     1      -3.411   3.620  -0.173  1.00  0.00    -0.248 OA
ATOM      6  N   UNL     1      -3.566   2.094   1.530  1.00  0.00    -0.276 N 
ATOM      7  C   UNL     1      -3.393   0.750   1.658  1.00  0.00     0.258 C 
ATOM      8  O   UNL     1      -3.673   0.112   2.664  1.00  0.00    -0.271 OA
ATOM      9  H   UNL     1      -2.600   1.497  -1.423  1.00  0.00     0.166 HD
ATOM     10  H   UNL     1      -3.954   2.691   2.239  1.00  0.00     0.174 HD
ENDROOT
BRANCH   2  11
ATOM     11  C   UNL     1      -1.435  -0.417   0.510  1.00  0.00    -0.013 A 
ATOM     12  C   UNL     1      -0.293   0.099  -0.137  1.00  0.00     0.016 A 
ATOM     13  C   UNL     1      -1.258  -1.530   1.339  1.00  0.00     0.007 A 
ATOM     14  C   UNL     1       1.009  -0.455   0.008  1.00  0.00    -0.010 A 
ATOM     15  C   UNL     1       0.001  -2.103   1.507  1.00  0.00     0.009 A 
ATOM     16  C   UNL     1       2.190   0.058  -0.643  1.00  0.00    -0.011 A 
ATOM     17  C   UNL     1       1.127  -1.584   0.854  1.00  0.00    -0.018 A 
ATOM     18  C   UNL     1       2.202   1.185  -1.506  1.00  0.00     0.009 A 
ATOM     19  C   UNL     1       3.436  -0.584  -0.424  1.00  0.00    -0.018 A 
ATOM     20  C   UNL     1       2.371  -2.189   1.047  1.00  0.00     0.009 A 
ATOM     21  C   UNL     1       3.372   1.646  -2.117  1.00  0.00     0.001 A 
ATOM     22  C   UNL     1       4.605  -0.111  -1.045  1.00  0.00     0.009 A 
ATOM     23  C   UNL     1       3.509  -1.697   0.416  1.00  0.00     0.009 A 
ATOM     24  C   UNL     1       4.575   0.997  -1.887  1.00  0.00     0.001 A 
ENDBRANCH   2  11
TORSDOF 1
