REMARK SMILES O=C(O)[C@H]1O[C@@H](Oc2cc3oc(-c4ccccc4)cc(=O)c3c(O)c2O)[C@H](O)[C@@H](O)[C@@H]1O
REMARK SMILES IDX 29 1 27 2 6 3 5 4 4 5 31 6 30 7 28 9 32 11 7 13 8 14 25 15
REMARK SMILES IDX 9 16 23 17 10 18 22 19 11 20 20 21 12 22 21 23 19 24 26 25
REMARK SMILES IDX 24 27 13 29 14 30 18 31 15 32 17 33 16 34 2 35 1 36 3 37
REMARK H PARENT 30 8 28 10 32 12 26 26 24 28 3 38
ROOT
ATOM      1  C   UNL     1      -3.934  -2.287  -0.261  1.00  0.00     0.181 C 
ATOM      2  C   UNL     1      -2.940  -1.789   0.794  1.00  0.00     0.214 C 
ATOM      3  C   UNL     1      -2.530  -0.342   0.477  1.00  0.00     0.340 C 
ATOM      4  O   UNL     1      -3.639   0.566   0.533  1.00  0.00    -0.322 OA
ATOM      5  C   UNL     1      -4.896   0.057   0.078  1.00  0.00     0.263 C 
ATOM      6  C   UNL     1      -4.811  -1.168  -0.848  1.00  0.00     0.186 C 
ENDROOT
BRANCH   1   7
ATOM      7  O   UNL     1      -4.732  -3.338   0.306  1.00  0.00    -0.387 OA
ATOM      8  H   UNL     1      -5.323  -2.944   0.986  1.00  0.00     0.211 HD
ENDBRANCH   1   7
BRANCH   2   9
ATOM      9  O   UNL     1      -1.815  -2.679   0.816  1.00  0.00    -0.384 OA
ATOM     10  H   UNL     1      -2.175  -3.564   1.016  1.00  0.00     0.211 HD
ENDBRANCH   2   9
BRANCH   6  11
ATOM     11  O   UNL     1      -4.242  -0.738  -2.097  1.00  0.00    -0.387 OA
ATOM     12  H   UNL     1      -4.314  -1.477  -2.727  1.00  0.00     0.211 HD
ENDBRANCH   6  11
BRANCH   3  13
ATOM     13  O   UNL     1      -1.590   0.082   1.484  1.00  0.00    -0.458 OA
BRANCH  13  14
ATOM     14  C   UNL     1      -0.571   0.813   0.941  1.00  0.00     0.172 A 
ATOM     15  C   UNL     1      -0.739   2.145   0.568  1.00  0.00     0.201 A 
ATOM     16  C   UNL     1       0.676   0.211   0.818  1.00  0.00     0.098 A 
ATOM     17  C   UNL     1       0.332   2.878   0.048  1.00  0.00     0.176 A 
ATOM     18  C   UNL     1       1.747   0.941   0.289  1.00  0.00     0.146 A 
ATOM     19  C   UNL     1       1.586   2.278  -0.099  1.00  0.00     0.111 A 
ATOM     20  O   UNL     1       2.934   0.260   0.178  1.00  0.00    -0.456 OA
ATOM     21  C   UNL     1       2.763   2.982  -0.656  1.00  0.00     0.197 C 
ATOM     22  C   UNL     1       4.019   0.913  -0.377  1.00  0.00     0.138 C 
ATOM     23  O   UNL     1       2.769   4.149  -1.028  1.00  0.00    -0.289 OA
ATOM     24  C   UNL     1       4.004   2.193  -0.773  1.00  0.00     0.100 C 
BRANCH  15  25
ATOM     25  O   UNL     1      -1.944   2.790   0.691  1.00  0.00    -0.502 OA
ATOM     26  H   UNL     1      -2.596   2.124   0.998  1.00  0.00     0.293 HD
ENDBRANCH  15  25
BRANCH  17  27
ATOM     27  O   UNL     1       0.095   4.179  -0.305  1.00  0.00    -0.504 OA
ATOM     28  H   UNL     1      -0.848   4.344  -0.102  1.00  0.00     0.293 HD
ENDBRANCH  17  27
BRANCH  22  29
ATOM     29  C   UNL     1       5.230   0.080  -0.495  1.00  0.00     0.017 A 
ATOM     30  C   UNL     1       5.977   0.043  -1.683  1.00  0.00     0.012 A 
ATOM     31  C   UNL     1       5.641  -0.720   0.581  1.00  0.00     0.012 A 
ATOM     32  C   UNL     1       7.109  -0.769  -1.787  1.00  0.00     0.001 A 
ATOM     33  C   UNL     1       6.777  -1.529   0.478  1.00  0.00     0.001 A 
ATOM     34  C   UNL     1       7.510  -1.552  -0.706  1.00  0.00     0.000 A 
ENDBRANCH  22  29
ENDBRANCH  13  14
ENDBRANCH   3  13
BRANCH   5  35
ATOM     35  C   UNL     1      -5.813  -0.257   1.258  1.00  0.00     0.335 C 
ATOM     36  O   UNL     1      -6.059  -1.374   1.694  1.00  0.00    -0.249 OA
BRANCH  35  37
ATOM     37  O   UNL     1      -6.350   0.844   1.822  1.00  0.00    -0.479 OA
ATOM     38  H   UNL     1      -6.883   0.526   2.582  1.00  0.00     0.296 HD
ENDBRANCH  35  37
ENDBRANCH   5  35
TORSDOF 10
