REMARK SMILES COC(=O)OCOc1c2n(ccc1=O)N([C@@H]1c3ccccc3SCc3c1ccc(F)c3F)[C@@H]1COCCN1C2=O
REMARK SMILES IDX 6 1 5 2 3 3 4 4 2 5 1 6 7 7 8 8 9 9 13 10 10 11 39 12 12 13
REMARK SMILES IDX 14 14 11 15 15 16 38 17 40 18 33 19 37 20 34 21 36 22 35 23
REMARK SMILES IDX 16 24 26 25 17 26 27 27 25 28 18 29 22 30 28 31 31 32 24 33
REMARK SMILES IDX 19 34 23 35 21 36 29 37 20 38 32 39 30 40
REMARK H PARENT
ROOT
ATOM      1  C   UNL     1       4.646   0.822   0.382  1.00  0.00     0.475 C 
ENDROOT
BRANCH   1   2
ATOM      2  O   UNL     1       5.798   0.462  -0.387  1.00  0.00    -0.397 OA
BRANCH   2   3
ATOM      3  C   UNL     1       6.938   0.453   0.335  1.00  0.00     0.510 C 
ATOM      4  O   UNL     1       7.032   0.678   1.532  1.00  0.00    -0.203 OA
BRANCH   3   5
ATOM      5  O   UNL     1       7.966   0.172  -0.501  1.00  0.00    -0.438 OA
ATOM      6  C   UNL     1       9.250   0.180   0.122  1.00  0.00     0.286 C 
ENDBRANCH   3   5
ENDBRANCH   2   3
ENDBRANCH   1   2
BRANCH   1   7
ATOM      7  O   UNL     1       3.489   0.706  -0.450  1.00  0.00    -0.451 OA
BRANCH   7   8
ATOM      8  C   UNL     1       2.269   0.602   0.194  1.00  0.00     0.202 C 
ATOM      9  C   UNL     1       1.242  -0.124  -0.304  1.00  0.00     0.174 C 
ATOM     10  C   UNL     1       1.997   1.321   1.491  1.00  0.00     0.224 C 
ATOM     11  N   UNL     1      -0.038  -0.148   0.276  1.00  0.00    -0.253 N 
ATOM     12  C   UNL     1       1.522  -1.122  -1.390  1.00  0.00     0.278 C 
ATOM     13  C   UNL     1       0.775   0.950   2.244  1.00  0.00     0.076 C 
ATOM     14  O   UNL     1       2.768   2.148   1.968  1.00  0.00    -0.286 OA
ATOM     15  C   UNL     1      -0.156   0.238   1.600  1.00  0.00     0.115 C 
ATOM     16  N   UNL     1      -1.178  -0.667  -0.428  1.00  0.00    -0.275 NA
ATOM     17  N   UNL     1       0.393  -1.724  -1.889  1.00  0.00    -0.311 N 
ATOM     18  O   UNL     1       2.649  -1.492  -1.700  1.00  0.00    -0.267 OA
ATOM     19  C   UNL     1      -0.896  -1.061  -1.825  1.00  0.00     0.225 C 
ATOM     20  C   UNL     1       0.458  -3.000  -2.586  1.00  0.00     0.150 C 
ATOM     21  C   UNL     1      -1.984  -1.961  -2.503  1.00  0.00     0.209 C 
ATOM     22  C   UNL     1      -0.647  -3.906  -2.040  1.00  0.00     0.182 C 
ATOM     23  O   UNL     1      -1.964  -3.337  -2.103  1.00  0.00    -0.375 OA
BRANCH  16  24
ATOM     24  C   UNL     1      -2.425   0.211  -0.311  1.00  0.00     0.165 C 
ATOM     25  C   UNL     1      -3.479  -0.539   0.576  1.00  0.00    -0.012 A 
ATOM     26  C   UNL     1      -2.112   1.740  -0.195  1.00  0.00    -0.006 A 
ATOM     27  C   UNL     1      -3.340  -1.944   0.768  1.00  0.00     0.010 A 
ATOM     28  C   UNL     1      -4.651   0.047   1.109  1.00  0.00     0.007 A 
ATOM     29  C   UNL     1      -1.355   2.323  -1.249  1.00  0.00     0.007 A 
ATOM     30  C   UNL     1      -2.435   2.604   0.870  1.00  0.00     0.013 A 
ATOM     31  C   UNL     1      -4.291  -2.719   1.439  1.00  0.00     0.043 A 
ATOM     32  C   UNL     1      -5.605  -0.751   1.780  1.00  0.00     0.163 A 
ATOM     33  C   UNL     1      -4.885   1.523   1.103  1.00  0.00     0.114 C 
ATOM     34  C   UNL     1      -0.850   3.626  -1.199  1.00  0.00     0.000 A 
ATOM     35  S   UNL     1      -3.616   2.274   2.159  1.00  0.00    -0.121 SA
ATOM     36  C   UNL     1      -1.901   3.909   0.925  1.00  0.00     0.015 A 
ATOM     37  C   UNL     1      -5.425  -2.114   1.939  1.00  0.00     0.159 A 
ATOM     38  C   UNL     1      -1.099   4.413  -0.094  1.00  0.00     0.001 A 
ATOM     39  F   UNL     1      -6.710  -0.184   2.289  1.00  0.00    -0.203 F 
ATOM     40  F   UNL     1      -6.339  -2.849   2.589  1.00  0.00    -0.204 F 
ENDBRANCH  16  24
ENDBRANCH   7   8
ENDBRANCH   1   7
TORSDOF 6
