REMARK SMILES COC(=O)C1=C(C)NC(C)=C(C(=O)O[C@H]2CCN(Cc3ccccc3)C2)[C@H]1c1cccc([N+](=O)[O-])c1
REMARK SMILES IDX 12 1 13 2 11 3 5 4 6 5 27 6 8 7 9 8 7 9 10 11 3 12 4 13 2 14
REMARK SMILES IDX 1 15 28 16 36 17 29 18 32 19 30 20 31 21 33 22 34 23 35 24
REMARK SMILES IDX 14 25 15 26 16 27 26 28 17 29 18 30 19 31 20 32 21 33 25 34
REMARK SMILES IDX 22 35 24 36 23 37
REMARK H PARENT 8 10
ROOT
ATOM      1  C   UNL     1      -0.252  -0.750   1.259  1.00  0.00     0.337 C 
ATOM      2  O   UNL     1      -0.187  -0.465   2.444  1.00  0.00    -0.246 OA
ENDROOT
BRANCH   1   3
ATOM      3  C   UNL     1      -1.344  -1.554   0.673  1.00  0.00     0.068 C 
ATOM      4  C   UNL     1      -3.838  -2.010   0.529  1.00  0.00     0.068 C 
ATOM      5  C   UNL     1      -3.557  -3.055  -0.282  1.00  0.00     0.023 C 
ATOM      6  C   UNL     1      -2.743  -1.104   1.078  1.00  0.00     0.098 C 
ATOM      7  N   UNL     1      -2.240  -3.306  -0.641  1.00  0.00    -0.362 N 
ATOM      8  C   UNL     1      -1.145  -2.614  -0.144  1.00  0.00     0.023 C 
ATOM      9  C   UNL     1      -4.577  -4.034  -0.806  1.00  0.00     0.065 C 
ATOM     10  H   UNL     1      -2.056  -4.143  -1.189  1.00  0.00     0.166 HD
ATOM     11  C   UNL     1       0.206  -3.153  -0.540  1.00  0.00     0.065 C 
BRANCH   4  12
ATOM     12  C   UNL     1      -5.201  -1.677   0.988  1.00  0.00     0.336 C 
ATOM     13  O   UNL     1      -5.495  -1.515   2.162  1.00  0.00    -0.246 OA
BRANCH  12  14
ATOM     14  O   UNL     1      -6.021  -1.502  -0.079  1.00  0.00    -0.466 OA
ATOM     15  C   UNL     1      -7.343  -1.095   0.274  1.00  0.00     0.282 C 
ENDBRANCH  12  14
ENDBRANCH   4  12
BRANCH   6  16
ATOM     16  C   UNL     1      -2.985   0.357   0.676  1.00  0.00    -0.029 A 
ATOM     17  C   UNL     1      -3.239   1.324   1.664  1.00  0.00     0.090 A 
ATOM     18  C   UNL     1      -2.953   0.756  -0.673  1.00  0.00     0.005 A 
ATOM     19  C   UNL     1      -3.453   2.660   1.297  1.00  0.00     0.269 A 
ATOM     20  C   UNL     1      -3.164   2.088  -1.031  1.00  0.00     0.007 A 
ATOM     21  C   UNL     1      -3.414   3.046  -0.049  1.00  0.00     0.085 A 
BRANCH  19  22
ATOM     22  N   UNL     1      -3.720   3.668   2.331  1.00  0.00     0.062 N 
ATOM     23  O   UNL     1      -3.913   4.836   1.960  1.00  0.00    -0.258 OA
ATOM     24  O   UNL     1      -3.739   3.296   3.513  1.00  0.00    -0.258 OA
ENDBRANCH  19  22
ENDBRANCH   6  16
ENDBRANCH   1   3
BRANCH   1  25
ATOM     25  O   UNL     1       0.571  -0.308   0.276  1.00  0.00    -0.458 OA
BRANCH  25  26
ATOM     26  C   UNL     1       1.574   0.632   0.693  1.00  0.00     0.192 C 
ATOM     27  C   UNL     1       2.766  -0.079   1.335  1.00  0.00     0.062 C 
ATOM     28  C   UNL     1       2.152   1.313  -0.555  1.00  0.00     0.130 C 
ATOM     29  C   UNL     1       3.854  -0.031   0.273  1.00  0.00     0.089 C 
ATOM     30  N   UNL     1       3.606   1.261  -0.369  1.00  0.00    -0.295 NA
BRANCH  30  31
ATOM     31  C   UNL     1       4.333   1.432  -1.629  1.00  0.00     0.120 C 
BRANCH  31  32
ATOM     32  C   UNL     1       5.826   1.582  -1.426  1.00  0.00    -0.034 A 
ATOM     33  C   UNL     1       6.723   0.665  -1.993  1.00  0.00     0.005 A 
ATOM     34  C   UNL     1       6.335   2.651  -0.673  1.00  0.00     0.005 A 
ATOM     35  C   UNL     1       8.099   0.814  -1.807  1.00  0.00     0.000 A 
ATOM     36  C   UNL     1       7.711   2.798  -0.489  1.00  0.00     0.000 A 
ATOM     37  C   UNL     1       8.592   1.881  -1.056  1.00  0.00     0.000 A 
ENDBRANCH  31  32
ENDBRANCH  30  31
ENDBRANCH  25  26
ENDBRANCH   1  25
TORSDOF 9
