REMARK SMILES NC[C@H]1O[C@H](O[C@H]2[C@H](O)[C@@H](O[C@H]3O[C@H](CO)[C@@H](O)[C@H](N)[C@H]3O)[C@H](N)C[C@@H]2N)[C@H](N)[C@@H](O)[C@@H]1O
REMARK SMILES IDX 7 1 26 2 25 3 23 4 10 5 8 6 6 7 5 8 3 9 4 10 32 11 30 12
REMARK SMILES IDX 28 13 2 14 1 15 33 18 31 20 29 22 27 25 9 28 11 30 12 31
REMARK SMILES IDX 13 32 21 33 14 34 19 35 17 36 22 37 15 39 16 40 20 42 18 45
REMARK SMILES IDX 24 47
REMARK H PARENT 1 16 1 17 33 19 31 21 29 23 29 24 27 26 27 27 9 29 22 38 16 41
REMARK H PARENT 20 43 20 44 18 46 24 48 24 49
ROOT
ATOM      1  C   UNL     1      -0.894   0.296   1.058  1.00  0.00     0.169 C 
ATOM      2  C   UNL     1      -0.905   1.298   2.232  1.00  0.00     0.084 C 
ATOM      3  C   UNL     1       0.268   1.068   3.184  1.00  0.00     0.043 C 
ATOM      4  C   UNL     1       1.596   1.119   2.434  1.00  0.00     0.084 C 
ATOM      5  C   UNL     1       1.657   0.067   1.299  1.00  0.00     0.169 C 
ATOM      6  C   UNL     1       0.467   0.247   0.335  1.00  0.00     0.175 C 
ENDROOT
BRANCH   1   7
ATOM      7  O   UNL     1      -1.859   0.725   0.072  1.00  0.00    -0.343 OA
BRANCH   7   8
ATOM      8  C   UNL     1      -2.966  -0.174  -0.062  1.00  0.00     0.270 C 
ATOM      9  C   UNL     1      -5.111  -0.676   0.907  1.00  0.00     0.166 C 
ATOM     10  O   UNL     1      -3.940   0.166   0.927  1.00  0.00    -0.344 OA
ATOM     11  C   UNL     1      -5.796  -0.673  -0.479  1.00  0.00     0.175 C 
ATOM     12  C   UNL     1      -4.801  -0.873  -1.638  1.00  0.00     0.167 C 
ATOM     13  C   UNL     1      -3.569   0.039  -1.480  1.00  0.00     0.139 C 
BRANCH   9  14
ATOM     14  C   UNL     1      -4.786  -2.081   1.471  1.00  0.00     0.112 C 
BRANCH  14  15
ATOM     15  N   UNL     1      -5.952  -2.885   1.838  1.00  0.00    -0.328 NA
ATOM     16  H   UNL     1      -6.562  -2.352   2.455  1.00  0.00     0.118 HD
ATOM     17  H   UNL     1      -6.498  -3.118   1.008  1.00  0.00     0.118 HD
ENDBRANCH  14  15
ENDBRANCH   9  14
BRANCH  11  18
ATOM     18  O   UNL     1      -6.477   0.585  -0.656  1.00  0.00    -0.388 OA
ATOM     19  H   UNL     1      -5.795   1.233  -0.941  1.00  0.00     0.211 HD
ENDBRANCH  11  18
BRANCH  12  20
ATOM     20  O   UNL     1      -4.394  -2.242  -1.707  1.00  0.00    -0.388 OA
ATOM     21  H   UNL     1      -4.041  -2.395  -2.604  1.00  0.00     0.211 HD
ENDBRANCH  12  20
BRANCH  13  22
ATOM     22  N   UNL     1      -3.937   1.470  -1.710  1.00  0.00    -0.321 NA
ATOM     23  H   UNL     1      -3.255   1.856  -2.371  1.00  0.00     0.119 HD
ATOM     24  H   UNL     1      -3.698   1.968  -0.840  1.00  0.00     0.119 HD
ENDBRANCH  13  22
ENDBRANCH   7   8
ENDBRANCH   1   7
BRANCH   2  25
ATOM     25  N   UNL     1      -2.150   1.182   3.005  1.00  0.00    -0.325 NA
ATOM     26  H   UNL     1      -2.944   1.166   2.351  1.00  0.00     0.119 HD
ATOM     27  H   UNL     1      -2.276   2.007   3.589  1.00  0.00     0.119 HD
ENDBRANCH   2  25
BRANCH   6  28
ATOM     28  O   UNL     1       0.402  -0.857  -0.592  1.00  0.00    -0.388 OA
ATOM     29  H   UNL     1       1.152  -0.744  -1.212  1.00  0.00     0.211 HD
ENDBRANCH   6  28
BRANCH   5  30
ATOM     30  O   UNL     1       2.930   0.276   0.653  1.00  0.00    -0.342 OA
BRANCH  30  31
ATOM     31  C   UNL     1       3.369  -0.772  -0.205  1.00  0.00     0.281 C 
ATOM     32  O   UNL     1       2.882  -0.556  -1.535  1.00  0.00    -0.341 OA
ATOM     33  C   UNL     1       4.912  -0.867  -0.201  1.00  0.00     0.190 C 
ATOM     34  C   UNL     1       3.388   0.666  -2.122  1.00  0.00     0.177 C 
ATOM     35  C   UNL     1       5.509   0.430  -0.773  1.00  0.00     0.116 C 
ATOM     36  C   UNL     1       4.926   0.685  -2.174  1.00  0.00     0.165 C 
BRANCH  33  37
ATOM     37  O   UNL     1       5.434  -1.090   1.119  1.00  0.00    -0.386 OA
ATOM     38  H   UNL     1       5.238  -2.018   1.356  1.00  0.00     0.211 HD
ENDBRANCH  33  37
BRANCH  34  39
ATOM     39  C   UNL     1       2.774   0.776  -3.524  1.00  0.00     0.191 C 
BRANCH  39  40
ATOM     40  O   UNL     1       3.043  -0.402  -4.286  1.00  0.00    -0.394 OA
ATOM     41  H   UNL     1       2.757  -1.151  -3.732  1.00  0.00     0.210 HD
ENDBRANCH  39  40
ENDBRANCH  34  39
BRANCH  35  42
ATOM     42  N   UNL     1       6.992   0.369  -0.825  1.00  0.00    -0.323 NA
ATOM     43  H   UNL     1       7.354   1.323  -0.777  1.00  0.00     0.119 HD
ATOM     44  H   UNL     1       7.294  -0.064   0.054  1.00  0.00     0.119 HD
ENDBRANCH  35  42
BRANCH  36  45
ATOM     45  O   UNL     1       5.396   1.948  -2.656  1.00  0.00    -0.389 OA
ATOM     46  H   UNL     1       6.364   1.840  -2.738  1.00  0.00     0.211 HD
ENDBRANCH  36  45
ENDBRANCH  30  31
ENDBRANCH   5  30
BRANCH   4  47
ATOM     47  N   UNL     1       2.709   0.945   3.386  1.00  0.00    -0.325 NA
ATOM     48  H   UNL     1       2.652   0.026   3.825  1.00  0.00     0.119 HD
ATOM     49  H   UNL     1       3.580   0.927   2.843  1.00  0.00     0.119 HD
ENDBRANCH   4  47
TORSDOF 17
