REMARK SMILES CC(c1ccccc1)C1Nc2cc(Cl)c(S(N)(=O)=O)cc2S(=O)(=O)N1
REMARK SMILES IDX 9 1 10 2 11 3 21 4 20 5 15 6 13 7 14 8 12 9 22 10 23 11
REMARK SMILES IDX 24 12 25 13 2 16 1 17 3 18 4 19 8 20 5 21 7 22 6 23 16 24
REMARK SMILES IDX 18 25 19 26 17 27
REMARK H PARENT 10 14 25 15 17 28 17 29
ROOT
ATOM      1  C   UNL     1      -0.852  -0.309  -0.110  1.00  0.00     0.169 C 
ATOM      2  N   UNL     1       0.257  -1.233   0.113  1.00  0.00    -0.367 N 
ATOM      3  C   UNL     1       1.560  -0.757  -0.094  1.00  0.00     0.057 A 
ATOM      4  C   UNL     1       1.911   0.592  -0.028  1.00  0.00     0.107 A 
ATOM      5  C   UNL     1       3.236   1.028  -0.145  1.00  0.00     0.047 A 
ATOM      6  C   UNL     1       4.257   0.085  -0.314  1.00  0.00     0.102 A 
ATOM      7  C   UNL     1       3.945  -1.275  -0.345  1.00  0.00     0.063 A 
ATOM      8  Cl  UNL     1       5.124  -2.530  -0.476  1.00  0.00    -0.083 Cl
ATOM      9  C   UNL     1       2.606  -1.683  -0.220  1.00  0.00     0.049 A 
ATOM     10  S   UNL     1       0.648   1.786   0.245  1.00  0.00     0.244 S 
ATOM     11  O   UNL     1       1.040   2.591   1.379  1.00  0.00    -0.207 OA
ATOM     12  O   UNL     1       0.315   2.352  -1.042  1.00  0.00    -0.207 OA
ATOM     13  N   UNL     1      -0.618   0.831   0.748  1.00  0.00    -0.189 NA
ATOM     14  H   UNL     1       0.114  -2.127  -0.351  1.00  0.00     0.162 HD
ATOM     15  H   UNL     1      -0.600   0.642   1.745  1.00  0.00     0.143 HD
ENDROOT
BRANCH   1  16
ATOM     16  C   UNL     1      -2.209  -0.985   0.269  1.00  0.00     0.054 C 
ATOM     17  C   UNL     1      -2.556  -2.138  -0.686  1.00  0.00     0.016 C 
BRANCH  16  18
ATOM     18  C   UNL     1      -3.396  -0.025   0.311  1.00  0.00    -0.042 A 
ATOM     19  C   UNL     1      -3.650   0.891  -0.721  1.00  0.00     0.004 A 
ATOM     20  C   UNL     1      -4.282  -0.071   1.400  1.00  0.00     0.004 A 
ATOM     21  C   UNL     1      -4.751   1.747  -0.657  1.00  0.00     0.000 A 
ATOM     22  C   UNL     1      -5.384   0.785   1.460  1.00  0.00     0.000 A 
ATOM     23  C   UNL     1      -5.617   1.695   0.432  1.00  0.00     0.000 A 
ENDBRANCH  16  18
ENDBRANCH   1  16
BRANCH   6  24
ATOM     24  S   UNL     1       5.917   0.668  -0.509  1.00  0.00     0.239 S 
ATOM     25  O   UNL     1       6.470   0.067  -1.700  1.00  0.00    -0.207 OA
ATOM     26  O   UNL     1       5.915   2.098  -0.309  1.00  0.00    -0.207 OA
BRANCH  24  27
ATOM     27  N   UNL     1       6.730   0.001   0.803  1.00  0.00    -0.225 NA
ATOM     28  H   UNL     1       6.124  -0.403   1.515  1.00  0.00     0.137 HD
ATOM     29  H   UNL     1       7.420  -0.671   0.461  1.00  0.00     0.137 HD
ENDBRANCH  24  27
ENDBRANCH   6  24
TORSDOF 4
