REMARK SMILES Cn1c(CCCC(=O)O)nc2cc(N(CCCl)CCCl)ccc21
REMARK SMILES IDX 4 1 3 2 2 3 23 4 10 5 22 6 11 7 21 8 12 9 13 10 1 11 14 12
REMARK SMILES IDX 15 13 16 14 17 15 18 16 19 17 20 18 5 19 6 20 7 21 8 22 9 23
REMARK H PARENT 9 24
ROOT
ATOM      1  C   UNL     1       3.391  -0.586   0.990  1.00  0.00     0.076 C 
ENDROOT
BRANCH   1   2
ATOM      2  C   UNL     1       1.997  -0.139   0.686  1.00  0.00     0.109 A 
ATOM      3  N   UNL     1       1.518   1.141   0.870  1.00  0.00    -0.331 N 
ATOM      4  C   UNL     1       0.209   1.173   0.450  1.00  0.00     0.068 A 
ATOM      5  N   UNL     1       1.057  -0.918   0.187  1.00  0.00    -0.233 NA
ATOM      6  C   UNL     1      -0.757   2.178   0.387  1.00  0.00     0.031 A 
ATOM      7  C   UNL     1      -0.050  -0.124   0.034  1.00  0.00     0.091 A 
ATOM      8  C   UNL     1      -2.021   1.819  -0.116  1.00  0.00     0.028 A 
ATOM      9  C   UNL     1      -1.324  -0.450  -0.463  1.00  0.00     0.056 A 
ATOM     10  C   UNL     1      -2.341   0.521  -0.554  1.00  0.00     0.039 A 
ATOM     11  C   UNL     1       2.248   2.274   1.385  1.00  0.00     0.151 C 
BRANCH  10  12
ATOM     12  N   UNL     1      -3.607   0.184  -1.038  1.00  0.00    -0.369 N 
BRANCH  12  13
ATOM     13  C   UNL     1      -4.790   1.030  -0.797  1.00  0.00     0.132 C 
BRANCH  13  14
ATOM     14  C   UNL     1      -5.217   1.068   0.676  1.00  0.00     0.131 C 
ATOM     15  Cl  UNL     1      -5.891  -0.494   1.217  1.00  0.00    -0.125 Cl
ENDBRANCH  13  14
ENDBRANCH  12  13
BRANCH  12  16
ATOM     16  C   UNL     1      -3.695  -0.764  -2.169  1.00  0.00     0.132 C 
BRANCH  16  17
ATOM     17  C   UNL     1      -4.274  -2.106  -1.726  1.00  0.00     0.131 C 
ATOM     18  Cl  UNL     1      -4.340  -3.245  -3.097  1.00  0.00    -0.125 Cl
ENDBRANCH  16  17
ENDBRANCH  12  16
ENDBRANCH  10  12
ENDBRANCH   1   2
BRANCH   1  19
ATOM     19  C   UNL     1       4.339  -0.269  -0.170  1.00  0.00     0.020 C 
BRANCH  19  20
ATOM     20  C   UNL     1       5.781  -0.659   0.134  1.00  0.00     0.123 C 
BRANCH  20  21
ATOM     21  C   UNL     1       5.955  -2.145   0.263  1.00  0.00     0.303 C 
ATOM     22  O   UNL     1       6.135  -2.755   1.303  1.00  0.00    -0.252 OA
BRANCH  21  23
ATOM     23  O   UNL     1       5.886  -2.785  -0.917  1.00  0.00    -0.481 OA
ATOM     24  H   UNL     1       5.979  -3.734  -0.688  1.00  0.00     0.296 HD
ENDBRANCH  21  23
ENDBRANCH  20  21
ENDBRANCH  19  20
ENDBRANCH   1  19
TORSDOF 10
