REMARK SMILES NS(=O)(=O)c1cc2c(cc1C(F)(F)F)NC(Cc1ccccc1)NS2(=O)=O
REMARK SMILES IDX 5 1 6 2 7 3 8 4 15 5 16 6 24 7 25 8 26 9 27 10 9 11 10 12
REMARK SMILES IDX 2 15 3 16 4 17 1 18 11 21 12 22 13 23 14 24 17 25 18 26
REMARK SMILES IDX 19 27 23 28 20 29 22 30 21 31
REMARK H PARENT 15 13 24 14 1 19 1 20
ROOT
ATOM      1  C   UNL     1      -3.434  -0.178   0.671  1.00  0.00     0.095 A 
ATOM      2  C   UNL     1      -2.322  -0.917   1.088  1.00  0.00     0.046 A 
ATOM      3  C   UNL     1      -1.107  -0.779   0.409  1.00  0.00     0.107 A 
ATOM      4  C   UNL     1      -0.947   0.097  -0.659  1.00  0.00     0.056 A 
ATOM      5  N   UNL     1       0.219   0.195  -1.410  1.00  0.00    -0.368 N 
ATOM      6  C   UNL     1       1.496  -0.234  -0.863  1.00  0.00     0.166 C 
ATOM      7  N   UNL     1       1.361  -1.559  -0.304  1.00  0.00    -0.189 NA
ATOM      8  S   UNL     1       0.253  -1.763   0.920  1.00  0.00     0.244 S 
ATOM      9  O   UNL     1      -0.160  -3.147   0.858  1.00  0.00    -0.207 OA
ATOM     10  O   UNL     1       0.774  -1.176   2.133  1.00  0.00    -0.207 OA
ATOM     11  C   UNL     1      -2.085   0.803  -1.079  1.00  0.00     0.041 A 
ATOM     12  C   UNL     1      -3.338   0.690  -0.430  1.00  0.00     0.078 A 
ATOM     13  H   UNL     1       0.295   1.063  -1.936  1.00  0.00     0.162 HD
ATOM     14  H   UNL     1       1.286  -2.303  -0.994  1.00  0.00     0.143 HD
ENDROOT
BRANCH   1  15
ATOM     15  S   UNL     1      -4.945  -0.360   1.590  1.00  0.00     0.238 S 
ATOM     16  O   UNL     1      -4.692  -1.182   2.749  1.00  0.00    -0.207 OA
ATOM     17  O   UNL     1      -5.587   0.926   1.686  1.00  0.00    -0.207 OA
BRANCH  15  18
ATOM     18  N   UNL     1      -5.855  -1.306   0.553  1.00  0.00    -0.225 NA
ATOM     19  H   UNL     1      -6.657  -0.778   0.200  1.00  0.00     0.137 HD
ATOM     20  H   UNL     1      -6.104  -2.188   1.003  1.00  0.00     0.137 HD
ENDBRANCH  15  18
ENDBRANCH   1  15
BRANCH  12  21
ATOM     21  C   UNL     1      -4.492   1.522  -0.946  1.00  0.00     0.417 C 
ATOM     22  F   UNL     1      -5.678   0.862  -1.008  1.00  0.00    -0.166 F 
ATOM     23  F   UNL     1      -4.693   2.649  -0.216  1.00  0.00    -0.166 F 
ATOM     24  F   UNL     1      -4.276   1.961  -2.223  1.00  0.00    -0.166 F 
ENDBRANCH  12  21
BRANCH   6  25
ATOM     25  C   UNL     1       2.118   0.822   0.073  1.00  0.00     0.077 C 
BRANCH  25  26
ATOM     26  C   UNL     1       3.598   0.613   0.300  1.00  0.00    -0.045 A 
ATOM     27  C   UNL     1       4.538   1.166  -0.582  1.00  0.00     0.004 A 
ATOM     28  C   UNL     1       4.052  -0.152   1.381  1.00  0.00     0.004 A 
ATOM     29  C   UNL     1       5.904   0.958  -0.383  1.00  0.00     0.000 A 
ATOM     30  C   UNL     1       5.418  -0.360   1.578  1.00  0.00     0.000 A 
ATOM     31  C   UNL     1       6.344   0.194   0.697  1.00  0.00     0.000 A 
ENDBRANCH  25  26
ENDBRANCH   6  25
TORSDOF 5
