REMARK SMILES COC(=O)C1=C(C)NC(C)=C(C(=O)O[C@@H]2CCCN(Cc3ccccc3)C2)C1c1cccc([N+](=O)[O-])c1
REMARK SMILES IDX 12 1 13 2 11 3 5 4 6 5 28 6 8 7 9 8 7 9 10 11 3 12 4 13 2 14
REMARK SMILES IDX 1 15 29 16 37 17 30 18 33 19 31 20 32 21 34 22 35 23 36 24
REMARK SMILES IDX 14 25 15 26 16 27 27 28 17 29 19 30 18 31 20 32 21 33 22 34
REMARK SMILES IDX 26 35 23 36 25 37 24 38
REMARK H PARENT 8 10
ROOT
ATOM      1  C   UNL     1      -0.604   0.372   0.874  1.00  0.00     0.337 C 
ATOM      2  O   UNL     1      -0.578   1.542   1.219  1.00  0.00    -0.246 OA
ENDROOT
BRANCH   1   3
ATOM      3  C   UNL     1      -1.722  -0.544   1.187  1.00  0.00     0.068 C 
ATOM      4  C   UNL     1      -4.233  -0.880   1.387  1.00  0.00     0.068 C 
ATOM      5  C   UNL     1      -3.985  -2.114   1.880  1.00  0.00     0.023 C 
ATOM      6  C   UNL     1      -3.107   0.041   0.932  1.00  0.00     0.098 C 
ATOM      7  N   UNL     1      -2.675  -2.566   1.962  1.00  0.00    -0.362 N 
ATOM      8  C   UNL     1      -1.559  -1.790   1.686  1.00  0.00     0.023 C 
ATOM      9  C   UNL     1      -5.038  -3.049   2.417  1.00  0.00     0.065 C 
ATOM     10  H   UNL     1      -2.520  -3.464   2.414  1.00  0.00     0.166 HD
ATOM     11  C   UNL     1      -0.229  -2.411   2.028  1.00  0.00     0.065 C 
BRANCH   4  12
ATOM     12  C   UNL     1      -5.587  -0.295   1.275  1.00  0.00     0.336 C 
ATOM     13  O   UNL     1      -5.861   0.837   1.642  1.00  0.00    -0.246 OA
BRANCH  12  14
ATOM     14  O   UNL     1      -6.420  -1.155   0.639  1.00  0.00    -0.466 OA
ATOM     15  C   UNL     1      -7.731  -0.632   0.420  1.00  0.00     0.282 C 
ENDBRANCH  12  14
ENDBRANCH   4  12
BRANCH   6  16
ATOM     16  C   UNL     1      -3.274   0.425  -0.545  1.00  0.00    -0.029 A 
ATOM     17  C   UNL     1      -3.474   1.770  -0.902  1.00  0.00     0.090 A 
ATOM     18  C   UNL     1      -3.227  -0.548  -1.560  1.00  0.00     0.005 A 
ATOM     19  C   UNL     1      -3.624   2.120  -2.252  1.00  0.00     0.269 A 
ATOM     20  C   UNL     1      -3.377  -0.192  -2.901  1.00  0.00     0.007 A 
ATOM     21  C   UNL     1      -3.576   1.142  -3.253  1.00  0.00     0.085 A 
BRANCH  19  22
ATOM     22  N   UNL     1      -3.834   3.526  -2.622  1.00  0.00     0.062 N 
ATOM     23  O   UNL     1      -3.895   4.363  -1.711  1.00  0.00    -0.258 OA
ATOM     24  O   UNL     1      -3.938   3.794  -3.828  1.00  0.00    -0.258 OA
ENDBRANCH  19  22
ENDBRANCH   6  16
ENDBRANCH   1   3
BRANCH   1  25
ATOM     25  O   UNL     1       0.307  -0.252   0.089  1.00  0.00    -0.458 OA
BRANCH  25  26
ATOM     26  C   UNL     1       1.396   0.570  -0.375  1.00  0.00     0.191 C 
ATOM     27  C   UNL     1       2.028  -0.156  -1.561  1.00  0.00     0.048 C 
ATOM     28  C   UNL     1       2.440   0.787   0.747  1.00  0.00     0.130 C 
ATOM     29  C   UNL     1       3.260   0.578  -2.088  1.00  0.00     0.019 C 
ATOM     30  N   UNL     1       3.819   1.085   0.310  1.00  0.00    -0.295 NA
ATOM     31  C   UNL     1       3.846   1.567  -1.075  1.00  0.00     0.085 C 
BRANCH  30  32
ATOM     32  C   UNL     1       4.720  -0.053   0.557  1.00  0.00     0.120 C 
BRANCH  32  33
ATOM     33  C   UNL     1       6.186   0.272   0.353  1.00  0.00    -0.034 A 
ATOM     34  C   UNL     1       6.961  -0.460  -0.558  1.00  0.00     0.005 A 
ATOM     35  C   UNL     1       6.795   1.300   1.088  1.00  0.00     0.005 A 
ATOM     36  C   UNL     1       8.314  -0.166  -0.733  1.00  0.00     0.000 A 
ATOM     37  C   UNL     1       8.148   1.594   0.911  1.00  0.00     0.000 A 
ATOM     38  C   UNL     1       8.907   0.860   0.002  1.00  0.00     0.000 A 
ENDBRANCH  32  33
ENDBRANCH  30  32
ENDBRANCH  25  26
ENDBRANCH   1  25
TORSDOF 9
