REMARK SMILES CN(C)CCCOc1nn(Cc2ccccc2)c2ccccc12
REMARK SMILES IDX 6 1 5 2 4 3 2 4 1 5 3 6 7 7 8 8 9 9 23 10 10 11 18 12 22 13
REMARK SMILES IDX 19 14 21 15 20 16 11 17 12 18 13 19 17 20 14 21 16 22 15 23
REMARK H PARENT
ROOT
ATOM      1  C   UNL     1       2.699  -0.320   0.629  1.00  0.00     0.233 C 
ENDROOT
BRANCH   1   2
ATOM      2  C   UNL     1       2.446   1.157   0.924  1.00  0.00     0.057 C 
BRANCH   2   3
ATOM      3  C   UNL     1       2.551   2.114  -0.274  1.00  0.00     0.087 C 
BRANCH   3   4
ATOM      4  N   UNL     1       3.850   2.332  -0.923  1.00  0.00    -0.309 NA
ATOM      5  C   UNL     1       4.188   1.324  -1.918  1.00  0.00     0.104 C 
ATOM      6  C   UNL     1       4.945   2.570   0.006  1.00  0.00     0.104 C 
ENDBRANCH   3   4
ENDBRANCH   2   3
ENDBRANCH   1   2
BRANCH   1   7
ATOM      7  O   UNL     1       2.004  -0.782  -0.528  1.00  0.00    -0.476 OA
BRANCH   7   8
ATOM      8  C   UNL     1       0.702  -1.103  -0.346  1.00  0.00     0.240 A 
ATOM      9  N   UNL     1       0.145  -1.090   0.864  1.00  0.00    -0.133 NA
ATOM     10  C   UNL     1      -0.192  -1.485  -1.369  1.00  0.00     0.064 A 
ATOM     11  N   UNL     1      -1.139  -1.446   0.616  1.00  0.00    -0.257 N 
ATOM     12  C   UNL     1      -1.399  -1.709  -0.710  1.00  0.00     0.073 A 
ATOM     13  C   UNL     1      -0.121  -1.662  -2.763  1.00  0.00     0.016 A 
ATOM     14  C   UNL     1      -2.559  -2.109  -1.390  1.00  0.00     0.029 A 
ATOM     15  C   UNL     1      -1.270  -2.063  -3.454  1.00  0.00     0.001 A 
ATOM     16  C   UNL     1      -2.468  -2.281  -2.775  1.00  0.00     0.002 A 
BRANCH  11  17
ATOM     17  C   UNL     1      -2.072  -1.563   1.731  1.00  0.00     0.180 C 
BRANCH  17  18
ATOM     18  C   UNL     1      -3.010  -0.384   1.818  1.00  0.00    -0.026 A 
ATOM     19  C   UNL     1      -2.514   0.916   2.004  1.00  0.00     0.005 A 
ATOM     20  C   UNL     1      -4.398  -0.572   1.742  1.00  0.00     0.005 A 
ATOM     21  C   UNL     1      -3.385   2.003   2.095  1.00  0.00     0.000 A 
ATOM     22  C   UNL     1      -5.268   0.517   1.834  1.00  0.00     0.000 A 
ATOM     23  C   UNL     1      -4.761   1.803   2.009  1.00  0.00     0.000 A 
ENDBRANCH  17  18
ENDBRANCH  11  17
ENDBRANCH   7   8
ENDBRANCH   1   7
TORSDOF 7
