REMARK SMILES O=C(Nc1ccc(C(=O)O)c(O)c1)c1ccccc1
REMARK SMILES IDX 7 1 11 2 13 3 4 4 5 5 6 6 8 7 9 8 10 9 12 11 3 13 2 14 1 15
REMARK SMILES IDX 14 17 15 18 19 19 16 20 18 21 17 22
REMARK H PARENT 10 10 12 12 3 16
ROOT
ATOM      1  C   UNL     1      -3.815  -0.056  -0.324  1.00  0.00     0.101 A 
ATOM      2  C   UNL     1      -3.027  -1.209  -0.261  1.00  0.00     0.132 A 
ATOM      3  C   UNL     1      -1.631  -1.118  -0.174  1.00  0.00     0.073 A 
ATOM      4  C   UNL     1      -1.001   0.128  -0.155  1.00  0.00     0.045 A 
ATOM      5  C   UNL     1      -1.787   1.284  -0.218  1.00  0.00     0.027 A 
ATOM      6  C   UNL     1      -3.181   1.195  -0.302  1.00  0.00     0.022 A 
ENDROOT
BRANCH   1   7
ATOM      7  C   UNL     1      -5.298  -0.134  -0.390  1.00  0.00     0.339 C 
ATOM      8  O   UNL     1      -6.025  -1.034  -0.020  1.00  0.00    -0.246 OA
BRANCH   7   9
ATOM      9  O   UNL     1      -5.827   0.978  -0.943  1.00  0.00    -0.478 OA
ATOM     10  H   UNL     1      -6.788   0.781  -0.946  1.00  0.00     0.297 HD
ENDBRANCH   7   9
ENDBRANCH   1   7
BRANCH   2  11
ATOM     11  O   UNL     1      -3.604  -2.448  -0.306  1.00  0.00    -0.507 OA
ATOM     12  H   UNL     1      -2.919  -3.132  -0.219  1.00  0.00     0.293 HD
ENDBRANCH   2  11
BRANCH   4  13
ATOM     13  N   UNL     1       0.396   0.303  -0.065  1.00  0.00    -0.322 N 
ATOM     14  C   UNL     1       1.367  -0.683  -0.070  1.00  0.00     0.255 C 
ATOM     15  O   UNL     1       1.190  -1.886  -0.220  1.00  0.00    -0.269 OA
ATOM     16  H   UNL     1       0.720   1.262  -0.067  1.00  0.00     0.170 HD
BRANCH  14  17
ATOM     17  C   UNL     1       2.764  -0.186   0.085  1.00  0.00     0.040 A 
ATOM     18  C   UNL     1       3.786  -0.837  -0.617  1.00  0.00     0.014 A 
ATOM     19  C   UNL     1       3.075   0.887   0.931  1.00  0.00     0.014 A 
ATOM     20  C   UNL     1       5.106  -0.399  -0.498  1.00  0.00     0.001 A 
ATOM     21  C   UNL     1       4.397   1.321   1.047  1.00  0.00     0.001 A 
ATOM     22  C   UNL     1       5.409   0.682   0.330  1.00  0.00     0.000 A 
ENDBRANCH  14  17
ENDBRANCH   4  13
TORSDOF 5
