REMARK SMILES CC[N+]1(CC)CCC(OC(=O)C(O)(c2ccccc2)c2ccccc2)C1
REMARK SMILES IDX 10 1 11 2 9 3 8 4 3 5 6 6 26 7 7 8 2 9 1 10 4 11 5 12 12 13
REMARK SMILES IDX 13 14 14 16 15 17 19 18 16 19 18 20 17 21 20 22 21 23 25 24
REMARK SMILES IDX 22 25 24 26 23 27
REMARK H PARENT 13 15
ROOT
ATOM      1  C   UNL     1      -0.907   0.376  -0.326  1.00  0.00     0.348 C 
ATOM      2  O   UNL     1      -0.462   0.964  -1.307  1.00  0.00    -0.248 OA
ENDROOT
BRANCH   1   3
ATOM      3  O   UNL     1      -0.142  -0.521   0.376  1.00  0.00    -0.453 OA
BRANCH   3   4
ATOM      4  C   UNL     1       1.152  -0.790  -0.167  1.00  0.00     0.237 C 
ATOM      5  N   UNL     1       3.541  -0.178   0.029  1.00  0.00    -0.321 N 
ATOM      6  C   UNL     1       3.295  -1.685   0.305  1.00  0.00     0.268 C 
ATOM      7  C   UNL     1       2.100   0.414  -0.136  1.00  0.00     0.309 C 
ATOM      8  C   UNL     1       1.853  -1.778   0.745  1.00  0.00     0.113 C 
BRANCH   5   9
ATOM      9  C   UNL     1       4.320   0.004  -1.287  1.00  0.00     0.260 C 
ATOM     10  C   UNL     1       5.724  -0.577  -1.227  1.00  0.00     0.071 C 
ENDBRANCH   5   9
BRANCH   5  11
ATOM     11  C   UNL     1       4.236   0.463   1.244  1.00  0.00     0.260 C 
ATOM     12  C   UNL     1       4.541   1.939   1.042  1.00  0.00     0.071 C 
ENDBRANCH   5  11
ENDBRANCH   3   4
ENDBRANCH   1   3
BRANCH   1  13
ATOM     13  C   UNL     1      -2.287   0.626   0.359  1.00  0.00     0.213 C 
BRANCH  13  14
ATOM     14  O   UNL     1      -1.916   1.618   1.355  1.00  0.00    -0.370 OA
ATOM     15  H   UNL     1      -1.990   2.487   0.918  1.00  0.00     0.213 HD
ENDBRANCH  13  14
BRANCH  13  16
ATOM     16  C   UNL     1      -3.365   1.253  -0.541  1.00  0.00    -0.001 A 
ATOM     17  C   UNL     1      -3.384   1.098  -1.937  1.00  0.00     0.008 A 
ATOM     18  C   UNL     1      -4.431   1.962   0.053  1.00  0.00     0.008 A 
ATOM     19  C   UNL     1      -4.404   1.664  -2.709  1.00  0.00     0.000 A 
ATOM     20  C   UNL     1      -5.447   2.526  -0.720  1.00  0.00     0.000 A 
ATOM     21  C   UNL     1      -5.430   2.381  -2.102  1.00  0.00     0.000 A 
ENDBRANCH  13  16
BRANCH  13  22
ATOM     22  C   UNL     1      -2.813  -0.644   1.045  1.00  0.00    -0.001 A 
ATOM     23  C   UNL     1      -3.187  -1.763   0.274  1.00  0.00     0.008 A 
ATOM     24  C   UNL     1      -2.940  -0.732   2.443  1.00  0.00     0.008 A 
ATOM     25  C   UNL     1      -3.666  -2.926   0.881  1.00  0.00     0.000 A 
ATOM     26  C   UNL     1      -3.419  -1.897   3.048  1.00  0.00     0.000 A 
ATOM     27  C   UNL     1      -3.780  -2.993   2.268  1.00  0.00     0.000 A 
ENDBRANCH  13  22
ENDBRANCH   1  13
TORSDOF 8
