REMARK SMILES CC(=Cc1ccccc1)CC(N)=O
REMARK SMILES IDX 10 1 2 2 3 3 1 4 4 5 5 6 9 7 6 8 8 9 7 10 11 11 12 12 13 13
REMARK H PARENT 12 14 12 15
ROOT
ATOM      1  C   UNL     1       2.420  -0.782   0.503  1.00  0.00     0.130 C 
ENDROOT
BRANCH   1   2
ATOM      2  C   UNL     1       1.063  -0.147   0.292  1.00  0.00    -0.063 C 
ATOM      3  C   UNL     1      -0.060  -0.867   0.485  1.00  0.00     0.007 C 
ATOM      4  C   UNL     1       1.089   1.304  -0.114  1.00  0.00     0.040 C 
BRANCH   3   5
ATOM      5  C   UNL     1      -1.423  -0.367   0.298  1.00  0.00    -0.026 A 
ATOM      6  C   UNL     1      -2.169   0.066   1.398  1.00  0.00     0.008 A 
ATOM      7  C   UNL     1      -1.985  -0.317  -0.982  1.00  0.00     0.008 A 
ATOM      8  C   UNL     1      -3.468   0.545   1.219  1.00  0.00     0.001 A 
ATOM      9  C   UNL     1      -3.284   0.163  -1.159  1.00  0.00     0.001 A 
ATOM     10  C   UNL     1      -4.025   0.593  -0.059  1.00  0.00     0.000 A 
ENDBRANCH   3   5
ENDBRANCH   1   2
BRANCH   1  11
ATOM     11  C   UNL     1       3.120  -1.029  -0.826  1.00  0.00     0.221 C 
ATOM     12  N   UNL     1       4.221  -0.253  -1.060  1.00  0.00    -0.369 N 
ATOM     13  O   UNL     1       2.753  -1.855  -1.654  1.00  0.00    -0.275 OA
ATOM     14  H   UNL     1       4.378   0.606  -0.553  1.00  0.00     0.159 HD
ATOM     15  H   UNL     1       4.632  -0.337  -1.981  1.00  0.00     0.159 HD
ENDBRANCH   1  11
TORSDOF 3
