REMARK SMILES COc1c2ccoc2cc2oc(=O)ccc12
REMARK SMILES IDX 1 1 2 2 3 3 4 4 16 5 5 6 8 7 10 8 15 9 6 10 7 11 9 12 11 13
REMARK SMILES IDX 14 14 12 15 13 16
REMARK H PARENT
ROOT
ATOM      1  C   UNL     1       0.182   2.840  -0.300  1.00  0.00     0.278 C 
ATOM      2  O   UNL     1       0.302   1.934   0.798  1.00  0.00    -0.495 OA
ENDROOT
BRANCH   2   3
ATOM      3  C   UNL     1       0.334   0.633   0.336  1.00  0.00     0.140 A 
ATOM      4  C   UNL     1       1.525   0.073  -0.178  1.00  0.00     0.063 A 
ATOM      5  C   UNL     1      -0.814  -0.175   0.455  1.00  0.00     0.061 A 
ATOM      6  C   UNL     1       2.858   0.519  -0.395  1.00  0.00     0.054 A 
ATOM      7  C   UNL     1       1.502  -1.252  -0.603  1.00  0.00     0.141 A 
ATOM      8  C   UNL     1      -0.763  -1.498   0.006  1.00  0.00     0.145 A 
ATOM      9  C   UNL     1      -2.063   0.309   1.033  1.00  0.00     0.023 C 
ATOM     10  C   UNL     1       3.542  -0.542  -0.943  1.00  0.00     0.196 A 
ATOM     11  O   UNL     1       2.725  -1.619  -1.075  1.00  0.00    -0.464 OA
ATOM     12  C   UNL     1       0.384  -2.077  -0.543  1.00  0.00     0.095 A 
ATOM     13  O   UNL     1      -1.901  -2.335   0.089  1.00  0.00    -0.422 OA
ATOM     14  C   UNL     1      -3.126  -0.496   1.108  1.00  0.00     0.095 C 
ATOM     15  C   UNL     1      -3.100  -1.885   0.623  1.00  0.00     0.336 C 
ATOM     16  O   UNL     1      -4.096  -2.594   0.695  1.00  0.00    -0.246 OA
ENDBRANCH   2   3
TORSDOF 1
