REMARK SMILES CC[C@H](C)[C@H]1C(=O)N2CCC[C@H]2[C@]2(O)O[C@](NC(=O)[C@@H]3C=C4c5cccc6[nH]cc(c56)C[C@H]4N(C)C3)(C(C)C)C(=O)N12
REMARK SMILES IDX 5 1 42 2 40 3 41 4 16 5 15 6 13 7 12 8 11 9 10 10 9 11 8 12
REMARK SMILES IDX 6 13 7 14 3 15 4 16 2 17 1 18 14 19 17 21 18 22 19 23 20 25
REMARK SMILES IDX 36 26 21 27 34 28 22 29 33 30 23 31 32 32 24 33 31 34 30 35
REMARK SMILES IDX 25 36 27 37 29 38 26 39 28 40 35 41 37 43 38 44 39 45
REMARK H PARENT 14 20 17 24 28 42
ROOT
ATOM      1  C   UNL     1      -4.595   0.624   0.292  1.00  0.00     0.183 C 
ATOM      2  N   UNL     1      -3.190   0.268  -0.002  1.00  0.00    -0.273 N 
ATOM      3  C   UNL     1      -2.410  -0.432   0.889  1.00  0.00     0.281 C 
ATOM      4  O   UNL     1      -2.582  -0.484   2.097  1.00  0.00    -0.269 OA
ATOM      5  C   UNL     1      -1.249  -1.063   0.102  1.00  0.00     0.228 C 
ATOM      6  O   UNL     1      -1.519  -0.665  -1.246  1.00  0.00    -0.294 OA
ATOM      7  C   UNL     1      -2.767  -0.009  -1.326  1.00  0.00     0.276 C 
ATOM      8  C   UNL     1      -3.822  -0.872  -2.046  1.00  0.00     0.168 C 
ATOM      9  C   UNL     1      -3.599  -1.076  -3.548  1.00  0.00     0.035 C 
ATOM     10  C   UNL     1      -5.017  -1.318  -4.065  1.00  0.00     0.024 C 
ATOM     11  C   UNL     1      -5.849  -0.343  -3.242  1.00  0.00     0.120 C 
ATOM     12  N   UNL     1      -5.160  -0.278  -1.969  1.00  0.00    -0.330 N 
ATOM     13  C   UNL     1      -5.535   0.593  -0.962  1.00  0.00     0.246 C 
ATOM     14  O   UNL     1      -6.603   1.201  -1.017  1.00  0.00    -0.272 OA
ENDROOT
BRANCH   1  15
ATOM     15  C   UNL     1      -4.639   1.922   1.146  1.00  0.00     0.018 C 
ATOM     16  C   UNL     1      -4.727   3.214   0.330  1.00  0.00     0.010 C 
BRANCH  15  17
ATOM     17  C   UNL     1      -5.666   1.879   2.295  1.00  0.00     0.002 C 
ATOM     18  C   UNL     1      -7.129   1.781   1.900  1.00  0.00     0.004 C 
ENDBRANCH  15  17
ENDBRANCH   1  15
BRANCH   7  19
ATOM     19  O   UNL     1      -2.595   1.237  -1.956  1.00  0.00    -0.347 OA
ATOM     20  H   UNL     1      -2.267   1.813  -1.247  1.00  0.00     0.216 HD
ENDBRANCH   7  19
BRANCH   5  21
ATOM     21  N   UNL     1      -0.046  -0.401   0.574  1.00  0.00    -0.319 N 
ATOM     22  C   UNL     1       1.160  -0.383  -0.096  1.00  0.00     0.230 C 
ATOM     23  O   UNL     1       1.322  -0.880  -1.205  1.00  0.00    -0.274 OA
ATOM     24  H   UNL     1      -0.062  -0.115   1.545  1.00  0.00     0.166 HD
BRANCH  22  25
ATOM     25  C   UNL     1       2.267   0.362   0.667  1.00  0.00     0.115 C 
ATOM     26  C   UNL     1       2.766  -0.427   1.898  1.00  0.00     0.102 C 
ATOM     27  C   UNL     1       3.391   0.814  -0.228  1.00  0.00    -0.007 C 
ATOM     28  N   UNL     1       3.914  -1.328   1.695  1.00  0.00    -0.298 NA
ATOM     29  C   UNL     1       4.657   0.405  -0.034  1.00  0.00    -0.026 C 
ATOM     30  C   UNL     1       5.055  -0.630   1.046  1.00  0.00     0.091 C 
ATOM     31  C   UNL     1       5.792   1.043  -0.732  1.00  0.00    -0.011 A 
ATOM     32  C   UNL     1       6.030  -0.012   2.116  1.00  0.00     0.061 C 
ATOM     33  C   UNL     1       5.855   1.572  -2.022  1.00  0.00     0.009 A 
ATOM     34  C   UNL     1       6.936   1.151   0.078  1.00  0.00     0.010 A 
ATOM     35  C   UNL     1       7.140   0.704   1.408  1.00  0.00    -0.020 A 
ATOM     36  C   UNL     1       7.033   2.184  -2.474  1.00  0.00     0.003 A 
ATOM     37  C   UNL     1       8.093   1.760  -0.372  1.00  0.00     0.046 A 
ATOM     38  C   UNL     1       8.423   1.055   1.757  1.00  0.00     0.087 A 
ATOM     39  C   UNL     1       8.177   2.297  -1.660  1.00  0.00     0.027 A 
ATOM     40  N   UNL     1       8.991   1.692   0.672  1.00  0.00    -0.361 N 
ATOM     41  C   UNL     1       3.535  -2.515   0.923  1.00  0.00     0.106 C 
ATOM     42  H   UNL     1       9.931   2.063   0.645  1.00  0.00     0.166 HD
ENDBRANCH  22  25
ENDBRANCH   5  21
BRANCH   5  43
ATOM     43  C   UNL     1      -1.279  -2.608   0.245  1.00  0.00     0.046 C 
ATOM     44  C   UNL     1      -0.833  -3.104   1.627  1.00  0.00     0.013 C 
ATOM     45  C   UNL     1      -0.481  -3.347  -0.834  1.00  0.00     0.013 C 
ENDBRANCH   5  43
TORSDOF 6
