REMARK SMILES CNCCc1ccccn1
REMARK SMILES IDX 3 1 2 2 1 3 4 5 5 6 6 7 10 8 7 9 9 10 8 11
REMARK H PARENT 2 4
ROOT
ATOM      1  C   UNL     1       1.467  -0.454   0.745  1.00  0.00     0.087 C 
ENDROOT
BRANCH   1   2
ATOM      2  N   UNL     1       2.114   0.322  -0.325  1.00  0.00    -0.319 NA
ATOM      3  C   UNL     1       3.076   1.267   0.230  1.00  0.00     0.101 C 
ATOM      4  H   UNL     1       2.601  -0.316  -0.955  1.00  0.00     0.122 HD
ENDBRANCH   1   2
BRANCH   1   5
ATOM      5  C   UNL     1       0.400  -1.411   0.199  1.00  0.00     0.071 C 
BRANCH   5   6
ATOM      6  C   UNL     1      -0.930  -0.743  -0.043  1.00  0.00     0.042 A 
ATOM      7  C   UNL     1      -1.124   0.086  -1.145  1.00  0.00     0.024 A 
ATOM      8  N   UNL     1      -1.911  -0.989   0.862  1.00  0.00    -0.261 NA
ATOM      9  C   UNL     1      -2.368   0.685  -1.327  1.00  0.00     0.003 A 
ATOM     10  C   UNL     1      -3.107  -0.395   0.658  1.00  0.00     0.111 A 
ATOM     11  C   UNL     1      -3.382   0.441  -0.410  1.00  0.00     0.020 A 
ENDBRANCH   5   6
ENDBRANCH   1   5
TORSDOF 3
