REMARK SMILES NCCc1cc[nH]n1
REMARK SMILES IDX 2 1 1 2 3 5 4 6 8 7 5 8 7 9 6 10
REMARK H PARENT 1 3 1 4 7 11
ROOT
ATOM      1  C   UNL     1       1.686  -0.025   0.804  1.00  0.00     0.084 C 
ENDROOT
BRANCH   1   2
ATOM      2  N   UNL     1       3.085  -0.320   0.480  1.00  0.00    -0.330 NA
ATOM      3  H   UNL     1       3.333   0.113  -0.408  1.00  0.00     0.118 HD
ATOM      4  H   UNL     1       3.193  -1.326   0.346  1.00  0.00     0.118 HD
ENDBRANCH   1   2
BRANCH   1   5
ATOM      5  C   UNL     1       0.724  -0.440  -0.315  1.00  0.00     0.073 C 
BRANCH   5   6
ATOM      6  C   UNL     1      -0.695  -0.122   0.020  1.00  0.00     0.063 A 
ATOM      7  N   UNL     1      -1.468  -1.027   0.633  1.00  0.00    -0.181 NA
ATOM      8  C   UNL     1      -1.400   1.078  -0.233  1.00  0.00     0.045 A 
ATOM      9  N   UNL     1      -2.651  -0.407   0.771  1.00  0.00    -0.285 N 
ATOM     10  C   UNL     1      -2.661   0.860   0.267  1.00  0.00     0.105 A 
ATOM     11  H   UNL     1      -3.408  -0.910   1.221  1.00  0.00     0.189 HD
ENDBRANCH   5   6
ENDBRANCH   1   5
TORSDOF 3
