REMARK SMILES OC[C@H]1O[C@@H]2O[C@H]3[C@H](O)[C@@H](O)[C@@H](O[C@H]4[C@H](O)[C@@H](O)[C@@H](O[C@H]5[C@H](O)[C@@H](O)[C@@H](O[C@H]6[C@H](O)[C@@H](O)[C@@H](O[C@H]7[C@H](O)[C@@H](O)[C@@H](O[C@H]8[C@H](O)[C@@H](O)[C@@H](O[C@H]1[C@H](O)[C@H]2O)O[C@@H]8CO)O[C@@H]7CO)O[C@@H]6CO)O[C@@H]5CO)O[C@@H]4CO)O[C@@H]3CO
REMARK SMILES IDX 63 1 62 2 33 3 34 4 35 5 59 6 58 7 40 8 41 9 42 10 55 11
REMARK SMILES IDX 54 12 47 13 48 14 49 15 3 16 4 17 5 18 6 19 7 20 75 21 74 22
REMARK SMILES IDX 12 23 13 24 14 25 71 26 70 27 19 28 20 29 21 30 67 31 66 32
REMARK SMILES IDX 26 33 27 34 28 35 29 36 31 37 24 38 22 39 17 40 15 41 10 42
REMARK SMILES IDX 8 43 52 44 50 45 45 46 43 47 38 48 36 49 64 50 65 51 30 53
REMARK SMILES IDX 32 55 25 57 60 59 61 60 37 62 68 64 69 65 23 67 39 69 18 71
REMARK SMILES IDX 56 73 57 74 44 76 72 78 73 79 16 81 46 83 11 85 2 87 1 88
REMARK SMILES IDX 51 90 76 92 77 93 9 95 53 97
REMARK H PARENT 65 52 30 54 32 56 25 58 61 61 37 63 69 66 23 68 39 70 18 72
REMARK H PARENT 57 75 44 77 73 80 16 82 46 84 11 86 1 89 51 91 77 94 9 96
REMARK H PARENT 53 98
ROOT
ATOM      1  C   UNL     1       2.396   3.213  -1.175  1.00  0.00     0.178 C 
ATOM      2  O   UNL     1       3.725   3.166  -1.724  1.00  0.00    -0.341 OA
ATOM      3  C   UNL     1       4.718   3.590  -0.790  1.00  0.00     0.282 C 
ATOM      4  O   UNL     1       4.697   2.779   0.385  1.00  0.00    -0.341 OA
ATOM      5  C   UNL     1       5.699   1.740   0.421  1.00  0.00     0.184 C 
ATOM      6  C   UNL     1       5.569   0.671  -0.698  1.00  0.00     0.178 C 
ATOM      7  O   UNL     1       5.066  -0.575  -0.207  1.00  0.00    -0.341 OA
ATOM      8  C   UNL     1       5.814  -1.200   0.828  1.00  0.00     0.282 C 
ATOM      9  O   UNL     1       4.925  -2.091   1.522  1.00  0.00    -0.341 OA
ATOM     10  C   UNL     1       4.975  -3.473   1.113  1.00  0.00     0.184 C 
ATOM     11  C   UNL     1       4.539  -3.730  -0.353  1.00  0.00     0.178 C 
ATOM     12  O   UNL     1       3.139  -3.992  -0.489  1.00  0.00    -0.341 OA
ATOM     13  C   UNL     1       2.560  -4.992   0.339  1.00  0.00     0.282 C 
ATOM     14  O   UNL     1       1.352  -4.434   0.859  1.00  0.00    -0.341 OA
ATOM     15  C   UNL     1       0.176  -5.188   0.537  1.00  0.00     0.184 C 
ATOM     16  C   UNL     1      -0.367  -4.810  -0.855  1.00  0.00     0.178 C 
ATOM     17  O   UNL     1      -1.499  -3.941  -0.775  1.00  0.00    -0.341 OA
ATOM     18  C   UNL     1      -2.621  -4.428  -0.036  1.00  0.00     0.282 C 
ATOM     19  O   UNL     1      -3.336  -3.274   0.410  1.00  0.00    -0.341 OA
ATOM     20  C   UNL     1      -4.687  -3.210  -0.075  1.00  0.00     0.184 C 
ATOM     21  C   UNL     1      -4.733  -2.676  -1.528  1.00  0.00     0.178 C 
ATOM     22  O   UNL     1      -4.967  -1.261  -1.576  1.00  0.00    -0.341 OA
ATOM     23  C   UNL     1      -6.185  -0.809  -0.976  1.00  0.00     0.282 C 
ATOM     24  O   UNL     1      -6.134   0.614  -0.823  1.00  0.00    -0.341 OA
ATOM     25  C   UNL     1      -5.335   1.168   0.230  1.00  0.00     0.184 C 
ATOM     26  C   UNL     1      -5.953   2.521   0.642  1.00  0.00     0.178 C 
ATOM     27  O   UNL     1      -5.178   3.162   1.668  1.00  0.00    -0.341 OA
ATOM     28  C   UNL     1      -3.829   3.466   1.283  1.00  0.00     0.282 C 
ATOM     29  O   UNL     1      -3.850   4.460   0.257  1.00  0.00    -0.341 OA
ATOM     30  C   UNL     1      -2.731   5.364   0.134  1.00  0.00     0.184 C 
ATOM     31  C   UNL     1      -2.030   5.136  -1.230  1.00  0.00     0.178 C 
ATOM     32  O   UNL     1      -0.916   6.011  -1.450  1.00  0.00    -0.341 OA
ATOM     33  C   UNL     1       0.062   5.992  -0.413  1.00  0.00     0.282 C 
ATOM     34  O   UNL     1       0.677   4.702  -0.306  1.00  0.00    -0.341 OA
ATOM     35  C   UNL     1       2.009   4.671  -0.834  1.00  0.00     0.184 C 
ATOM     36  C   UNL     1       3.039   5.212   0.183  1.00  0.00     0.180 C 
ATOM     37  C   UNL     1       4.457   5.054  -0.383  1.00  0.00     0.202 C 
ATOM     38  C   UNL     1      -0.561   6.405   0.927  1.00  0.00     0.202 C 
ATOM     39  C   UNL     1      -1.709   5.459   1.290  1.00  0.00     0.180 C 
ATOM     40  C   UNL     1      -3.108   2.166   0.879  1.00  0.00     0.202 C 
ATOM     41  C   UNL     1      -3.881   1.420  -0.213  1.00  0.00     0.180 C 
ATOM     42  C   UNL     1      -6.616  -1.628   0.273  1.00  0.00     0.202 C 
ATOM     43  C   UNL     1      -5.399  -2.282   0.915  1.00  0.00     0.180 C 
ATOM     44  C   UNL     1      -2.236  -5.264   1.208  1.00  0.00     0.202 C 
ATOM     45  C   UNL     1      -0.830  -4.877   1.652  1.00  0.00     0.180 C 
ATOM     46  C   UNL     1       3.419  -5.431   1.539  1.00  0.00     0.202 C 
ATOM     47  C   UNL     1       4.081  -4.199   2.138  1.00  0.00     0.180 C 
ATOM     48  C   UNL     1       6.363  -0.198   1.874  1.00  0.00     0.202 C 
ATOM     49  C   UNL     1       5.564   1.102   1.814  1.00  0.00     0.180 C 
ENDROOT
BRANCH   1  50
ATOM     50  C   UNL     1       1.419   2.584  -2.176  1.00  0.00     0.191 C 
BRANCH  50  51
ATOM     51  O   UNL     1       0.225   2.146  -1.539  1.00  0.00    -0.394 OA
ATOM     52  H   UNL     1      -0.038   2.839  -0.898  1.00  0.00     0.210 HD
ENDBRANCH  50  51
ENDBRANCH   1  50
BRANCH  36  53
ATOM     53  O   UNL     1       2.819   6.606   0.490  1.00  0.00    -0.387 OA
ATOM     54  H   UNL     1       3.680   6.924   0.838  1.00  0.00     0.211 HD
ENDBRANCH  36  53
BRANCH  37  55
ATOM     55  O   UNL     1       5.399   5.531   0.584  1.00  0.00    -0.385 OA
ATOM     56  H   UNL     1       5.507   4.833   1.257  1.00  0.00     0.211 HD
ENDBRANCH  37  55
BRANCH  38  57
ATOM     57  O   UNL     1       0.392   6.408   2.004  1.00  0.00    -0.385 OA
ATOM     58  H   UNL     1       1.212   6.820   1.647  1.00  0.00     0.211 HD
ENDBRANCH  38  57
BRANCH   6  59
ATOM     59  C   UNL     1       6.879   0.447  -1.477  1.00  0.00     0.191 C 
BRANCH  59  60
ATOM     60  O   UNL     1       7.375   1.668  -2.007  1.00  0.00    -0.394 OA
ATOM     61  H   UNL     1       8.090   1.443  -2.631  1.00  0.00     0.210 HD
ENDBRANCH  59  60
ENDBRANCH   6  59
BRANCH  49  62
ATOM     62  O   UNL     1       6.058   2.036   2.788  1.00  0.00    -0.387 OA
ATOM     63  H   UNL     1       5.272   2.436   3.202  1.00  0.00     0.211 HD
ENDBRANCH  49  62
BRANCH  31  64
ATOM     64  C   UNL     1      -3.003   5.362  -2.406  1.00  0.00     0.191 C 
BRANCH  64  65
ATOM     65  O   UNL     1      -4.108   4.469  -2.408  1.00  0.00    -0.394 OA
ATOM     66  H   UNL     1      -4.423   4.417  -1.485  1.00  0.00     0.210 HD
ENDBRANCH  64  65
ENDBRANCH  31  64
BRANCH  39  67
ATOM     67  O   UNL     1      -2.348   5.981   2.472  1.00  0.00    -0.387 OA
ATOM     68  H   UNL     1      -1.615   6.178   3.094  1.00  0.00     0.211 HD
ENDBRANCH  39  67
BRANCH  48  69
ATOM     69  O   UNL     1       6.334  -0.779   3.189  1.00  0.00    -0.385 OA
ATOM     70  H   UNL     1       5.502  -1.291   3.232  1.00  0.00     0.211 HD
ENDBRANCH  48  69
BRANCH  40  71
ATOM     71  O   UNL     1      -1.757   2.379   0.448  1.00  0.00    -0.385 OA
ATOM     72  H   UNL     1      -1.507   1.532   0.006  1.00  0.00     0.211 HD
ENDBRANCH  40  71
BRANCH  11  73
ATOM     73  C   UNL     1       5.374  -4.848  -1.021  1.00  0.00     0.191 C 
BRANCH  73  74
ATOM     74  O   UNL     1       5.196  -4.813  -2.434  1.00  0.00    -0.394 OA
ATOM     75  H   UNL     1       5.694  -5.555  -2.819  1.00  0.00     0.210 HD
ENDBRANCH  73  74
ENDBRANCH  11  73
BRANCH  47  76
ATOM     76  O   UNL     1       4.837  -4.625   3.289  1.00  0.00    -0.387 OA
ATOM     77  H   UNL     1       5.601  -4.025   3.396  1.00  0.00     0.211 HD
ENDBRANCH  47  76
BRANCH  26  78
ATOM     78  C   UNL     1      -7.383   2.339   1.181  1.00  0.00     0.191 C 
BRANCH  78  79
ATOM     79  O   UNL     1      -7.997   3.593   1.499  1.00  0.00    -0.394 OA
ATOM     80  H   UNL     1      -7.678   4.250   0.856  1.00  0.00     0.210 HD
ENDBRANCH  78  79
ENDBRANCH  26  78
BRANCH  41  81
ATOM     81  O   UNL     1      -3.162   0.198  -0.430  1.00  0.00    -0.387 OA
ATOM     82  H   UNL     1      -3.631  -0.272  -1.149  1.00  0.00     0.211 HD
ENDBRANCH  41  81
BRANCH  46  83
ATOM     83  O   UNL     1       2.641  -6.117   2.537  1.00  0.00    -0.385 OA
ATOM     84  H   UNL     1       3.173  -6.042   3.359  1.00  0.00     0.211 HD
ENDBRANCH  46  83
BRANCH  42  85
ATOM     85  O   UNL     1      -7.367  -0.876   1.229  1.00  0.00    -0.385 OA
ATOM     86  H   UNL     1      -7.373  -1.429   2.037  1.00  0.00     0.211 HD
ENDBRANCH  42  85
BRANCH  16  87
ATOM     87  C   UNL     1      -0.691  -6.049  -1.708  1.00  0.00     0.191 C 
BRANCH  87  88
ATOM     88  O   UNL     1      -1.238  -5.690  -2.973  1.00  0.00    -0.394 OA
ATOM     89  H   UNL     1      -0.887  -4.814  -3.221  1.00  0.00     0.210 HD
ENDBRANCH  87  88
ENDBRANCH  16  87
BRANCH  45  90
ATOM     90  O   UNL     1      -0.488  -5.638   2.831  1.00  0.00    -0.387 OA
ATOM     91  H   UNL     1       0.487  -5.582   2.914  1.00  0.00     0.211 HD
ENDBRANCH  45  90
BRANCH  21  92
ATOM     92  C   UNL     1      -5.726  -3.446  -2.420  1.00  0.00     0.191 C 
BRANCH  92  93
ATOM     93  O   UNL     1      -5.400  -4.830  -2.453  1.00  0.00    -0.394 OA
ATOM     94  H   UNL     1      -5.988  -5.251  -3.104  1.00  0.00     0.210 HD
ENDBRANCH  92  93
ENDBRANCH  21  92
BRANCH  43  95
ATOM     95  O   UNL     1      -5.822  -3.032   2.069  1.00  0.00    -0.387 OA
ATOM     96  H   UNL     1      -5.034  -3.563   2.336  1.00  0.00     0.211 HD
ENDBRANCH  43  95
BRANCH  44  97
ATOM     97  O   UNL     1      -3.174  -5.137   2.292  1.00  0.00    -0.385 OA
ATOM     98  H   UNL     1      -2.646  -5.327   3.095  1.00  0.00     0.211 HD
ENDBRANCH  44  97
TORSDOF 28
