REMARK SMILES COc1ccc(NC(=O)c2ccc(C(=N)N(C)C)cc2)c(C(=O)Nc2ccc(Cl)cn2)c1
REMARK SMILES IDX 3 1 4 2 5 3 6 4 21 5 32 6 2 7 1 8 22 9 23 10 24 11 25 13
REMARK SMILES IDX 26 14 31 15 27 16 30 17 28 18 29 19 7 20 8 21 9 22 10 24
REMARK SMILES IDX 11 25 20 26 12 27 19 28 13 29 14 30 15 31 16 32 17 34 18 35
REMARK H PARENT 24 12 7 23 15 33
ROOT
ATOM      1  C   UNL     1      -3.857  -3.743  -0.355  1.00  0.00     0.119 A 
ATOM      2  C   UNL     1      -2.641  -4.380  -0.130  1.00  0.00     0.048 A 
ATOM      3  C   UNL     1      -1.450  -3.643  -0.094  1.00  0.00     0.031 A 
ATOM      4  C   UNL     1      -1.453  -2.256  -0.273  1.00  0.00     0.054 A 
ATOM      5  C   UNL     1      -2.696  -1.605  -0.454  1.00  0.00     0.067 A 
ATOM      6  C   UNL     1      -3.881  -2.358  -0.521  1.00  0.00     0.062 A 
ENDROOT
BRANCH   1   7
ATOM      7  O   UNL     1      -5.082  -4.346  -0.430  1.00  0.00    -0.497 OA
ATOM      8  C   UNL     1      -5.105  -5.766  -0.339  1.00  0.00     0.278 C 
ENDBRANCH   1   7
BRANCH   5   9
ATOM      9  C   UNL     1      -2.759  -0.112  -0.564  1.00  0.00     0.259 C 
ATOM     10  O   UNL     1      -1.798   0.467  -1.063  1.00  0.00    -0.269 OA
ATOM     11  N   UNL     1      -3.884   0.473  -0.015  1.00  0.00    -0.306 N 
ATOM     12  H   UNL     1      -4.538  -0.113   0.480  1.00  0.00     0.171 HD
BRANCH  11  13
ATOM     13  C   UNL     1      -4.155   1.849  -0.004  1.00  0.00     0.132 A 
ATOM     14  C   UNL     1      -5.316   2.266   0.647  1.00  0.00     0.049 A 
ATOM     15  N   UNL     1      -3.327   2.722  -0.605  1.00  0.00    -0.238 NA
ATOM     16  C   UNL     1      -5.631   3.626   0.680  1.00  0.00     0.026 A 
ATOM     17  C   UNL     1      -3.650   4.038  -0.563  1.00  0.00     0.134 A 
ATOM     18  C   UNL     1      -4.781   4.532   0.062  1.00  0.00     0.059 A 
ATOM     19  Cl  UNL     1      -5.127   6.211   0.077  1.00  0.00    -0.083 Cl
ENDBRANCH  11  13
ENDBRANCH   5   9
BRANCH   4  20
ATOM     20  N   UNL     1      -0.262  -1.488  -0.290  1.00  0.00    -0.321 N 
ATOM     21  C   UNL     1       1.036  -1.903  -0.081  1.00  0.00     0.255 C 
ATOM     22  O   UNL     1       1.399  -3.043   0.187  1.00  0.00    -0.269 OA
ATOM     23  H   UNL     1      -0.407  -0.521  -0.589  1.00  0.00     0.170 HD
BRANCH  21  24
ATOM     24  C   UNL     1       2.081  -0.840  -0.211  1.00  0.00     0.040 A 
ATOM     25  C   UNL     1       1.816   0.516   0.037  1.00  0.00     0.014 A 
ATOM     26  C   UNL     1       3.380  -1.234  -0.572  1.00  0.00     0.014 A 
ATOM     27  C   UNL     1       2.833   1.467  -0.094  1.00  0.00     0.013 A 
ATOM     28  C   UNL     1       4.397  -0.286  -0.703  1.00  0.00     0.013 A 
ATOM     29  C   UNL     1       4.120   1.061  -0.460  1.00  0.00     0.016 A 
BRANCH  29  30
ATOM     30  C   UNL     1       5.201   2.077  -0.610  1.00  0.00     0.127 C 
ATOM     31  N   UNL     1       4.998   3.085  -1.404  1.00  0.00    -0.284 NA
ATOM     32  N   UNL     1       6.404   1.932   0.072  1.00  0.00    -0.363 N 
ATOM     33  H   UNL     1       4.080   3.015  -1.853  1.00  0.00     0.189 HD
ATOM     34  C   UNL     1       6.425   1.382   1.426  1.00  0.00     0.145 C 
ATOM     35  C   UNL     1       7.455   2.920  -0.180  1.00  0.00     0.145 C 
ENDBRANCH  29  30
ENDBRANCH  21  24
ENDBRANCH   4  20
TORSDOF 6
