REMARK SMILES C=C(c1ccc(C(=O)O)cc1)c1cc2c(cc1C)C(C)(C)CCC2(C)C
REMARK SMILES IDX 3 1 4 2 5 3 6 4 10 5 11 6 2 7 1 8 12 9 17 10 16 11 13 12
REMARK SMILES IDX 15 13 14 14 19 15 24 16 22 17 23 18 18 19 20 20 21 21 25 22
REMARK SMILES IDX 26 23 7 24 8 25 9 26
REMARK H PARENT 9 27
ROOT
ATOM      1  C   UNL     1       3.203  -0.167  -0.339  1.00  0.00    -0.018 A 
ATOM      2  C   UNL     1       4.261   0.320   0.444  1.00  0.00     0.009 A 
ATOM      3  C   UNL     1       5.105  -0.556   1.136  1.00  0.00     0.016 A 
ATOM      4  C   UNL     1       4.896  -1.937   1.062  1.00  0.00     0.059 A 
ATOM      5  C   UNL     1       3.836  -2.433   0.296  1.00  0.00     0.016 A 
ATOM      6  C   UNL     1       2.995  -1.553  -0.393  1.00  0.00     0.009 A 
ENDROOT
BRANCH   1   7
ATOM      7  C   UNL     1       2.279   0.746  -1.061  1.00  0.00    -0.018 C 
ATOM      8  C   UNL     1       2.773   1.813  -1.717  1.00  0.00     0.018 C 
BRANCH   7   9
ATOM      9  C   UNL     1       0.805   0.566  -1.094  1.00  0.00    -0.015 A 
ATOM     10  C   UNL     1       0.104   0.168  -2.240  1.00  0.00    -0.043 A 
ATOM     11  C   UNL     1      -1.294   0.058  -2.171  1.00  0.00     0.008 A 
ATOM     12  C   UNL     1       0.095   0.789   0.096  1.00  0.00     0.013 A 
ATOM     13  C   UNL     1      -2.022   0.307  -0.985  1.00  0.00    -0.038 A 
ATOM     14  C   UNL     1      -1.308   0.644   0.185  1.00  0.00    -0.038 A 
ATOM     15  C   UNL     1      -3.551   0.161  -1.001  1.00  0.00    -0.010 C 
ATOM     16  C   UNL     1      -2.000   0.898   1.531  1.00  0.00    -0.010 C 
ATOM     17  C   UNL     1      -4.195   0.779   0.260  1.00  0.00     0.012 C 
ATOM     18  C   UNL     1      -3.457   0.384   1.527  1.00  0.00     0.012 C 
ATOM     19  C   UNL     1       0.793  -0.113  -3.548  1.00  0.00     0.045 C 
ATOM     20  C   UNL     1      -3.904  -1.340  -1.090  1.00  0.00     0.016 C 
ATOM     21  C   UNL     1      -4.185   0.884  -2.214  1.00  0.00     0.016 C 
ATOM     22  C   UNL     1      -1.283   0.170   2.693  1.00  0.00     0.016 C 
ATOM     23  C   UNL     1      -1.979   2.415   1.821  1.00  0.00     0.016 C 
ENDBRANCH   7   9
ENDBRANCH   1   7
BRANCH   4  24
ATOM     24  C   UNL     1       5.762  -2.905   1.777  1.00  0.00     0.335 C 
ATOM     25  O   UNL     1       5.642  -4.117   1.762  1.00  0.00    -0.246 OA
BRANCH  24  26
ATOM     26  O   UNL     1       6.741  -2.311   2.481  1.00  0.00    -0.478 OA
ATOM     27  H   UNL     1       7.221  -3.060   2.891  1.00  0.00     0.297 HD
ENDBRANCH  24  26
ENDBRANCH   4  24
TORSDOF 4
