REMARK SMILES CC(C)(C)CC(C)(C)c1cc(Cc2cc(C(C)(C)CC(C)(C)C)cc(-n3nc4ccccc4n3)c2O)c(O)c(-n2nc3ccccc3n2)c1
REMARK SMILES IDX 12 1 11 2 9 3 10 4 49 5 39 6 37 7 6 8 7 9 8 10 5 11 2 12
REMARK SMILES IDX 1 13 3 14 4 15 40 16 41 17 48 18 42 19 47 20 43 21 46 22
REMARK SMILES IDX 44 23 45 24 38 25 13 27 35 28 14 29 25 30 15 31 24 32 36 33
REMARK SMILES IDX 26 35 27 36 34 37 28 38 33 39 29 40 32 41 30 42 31 43 16 44
REMARK SMILES IDX 17 45 18 46 19 47 20 48 21 49 22 50 23 51
REMARK H PARENT 38 26 36 34
ROOT
ATOM      1  C   UNL     1      -0.275   2.442  -1.064  1.00  0.00     0.079 C 
ENDROOT
BRANCH   1   2
ATOM      2  C   UNL     1       1.189   2.167  -0.744  1.00  0.00     0.001 A 
ATOM      3  C   UNL     1       3.033   0.575  -0.289  1.00  0.00    -0.040 A 
ATOM      4  C   UNL     1       1.681   0.858  -0.559  1.00  0.00     0.012 A 
ATOM      5  C   UNL     1       3.912   1.675  -0.262  1.00  0.00     0.038 A 
ATOM      6  C   UNL     1       3.462   2.994  -0.464  1.00  0.00     0.128 A 
ATOM      7  C   UNL     1       2.099   3.233  -0.694  1.00  0.00     0.146 A 
BRANCH   3   8
ATOM      8  C   UNL     1       3.566  -0.882  -0.096  1.00  0.00    -0.010 C 
ATOM      9  C   UNL     1       4.394  -1.203  -1.363  1.00  0.00     0.016 C 
ATOM     10  C   UNL     1       4.487  -0.930   1.138  1.00  0.00     0.016 C 
BRANCH   8  11
ATOM     11  C   UNL     1       2.381  -1.911   0.056  1.00  0.00     0.017 C 
BRANCH  11  12
ATOM     12  C   UNL     1       2.531  -3.398   0.520  1.00  0.00    -0.037 C 
ATOM     13  C   UNL     1       3.649  -4.168  -0.190  1.00  0.00     0.011 C 
ATOM     14  C   UNL     1       2.712  -3.512   2.046  1.00  0.00     0.011 C 
ATOM     15  C   UNL     1       1.192  -4.108   0.179  1.00  0.00     0.011 C 
ENDBRANCH  11  12
ENDBRANCH   8  11
ENDBRANCH   3   8
BRANCH   6  16
ATOM     16  N   UNL     1       4.416   4.049  -0.456  1.00  0.00    -0.147 N 
ATOM     17  N   UNL     1       4.039   5.343  -0.657  1.00  0.00    -0.148 NA
ATOM     18  N   UNL     1       5.739   3.822  -0.271  1.00  0.00    -0.148 NA
ATOM     19  C   UNL     1       5.206   6.004  -0.632  1.00  0.00     0.113 A 
ATOM     20  C   UNL     1       6.280   5.041  -0.392  1.00  0.00     0.113 A 
ATOM     21  C   UNL     1       5.454   7.379  -0.802  1.00  0.00     0.032 A 
ATOM     22  C   UNL     1       7.631   5.424  -0.317  1.00  0.00     0.032 A 
ATOM     23  C   UNL     1       6.814   7.741  -0.726  1.00  0.00     0.002 A 
ATOM     24  C   UNL     1       7.857   6.804  -0.494  1.00  0.00     0.002 A 
ENDBRANCH   6  16
BRANCH   7  25
ATOM     25  O   UNL     1       1.583   4.489  -0.897  1.00  0.00    -0.505 OA
ATOM     26  H   UNL     1       2.321   5.138  -0.874  1.00  0.00     0.293 HD
ENDBRANCH   7  25
ENDBRANCH   1   2
BRANCH   1  27
ATOM     27  C   UNL     1      -1.252   1.299  -0.834  1.00  0.00     0.001 A 
ATOM     28  C   UNL     1      -1.542   0.367  -1.842  1.00  0.00     0.146 A 
ATOM     29  C   UNL     1      -1.831   1.138   0.442  1.00  0.00     0.012 A 
ATOM     30  C   UNL     1      -2.392  -0.714  -1.576  1.00  0.00     0.128 A 
ATOM     31  C   UNL     1      -2.693   0.070   0.741  1.00  0.00    -0.040 A 
ATOM     32  C   UNL     1      -2.963  -0.847  -0.296  1.00  0.00     0.038 A 
BRANCH  28  33
ATOM     33  O   UNL     1      -0.937   0.567  -3.056  1.00  0.00    -0.505 OA
ATOM     34  H   UNL     1      -1.201  -0.156  -3.667  1.00  0.00     0.293 HD
ENDBRANCH  28  33
BRANCH  30  35
ATOM     35  N   UNL     1      -2.683  -1.695  -2.563  1.00  0.00    -0.147 N 
ATOM     36  N   UNL     1      -2.143  -1.618  -3.812  1.00  0.00    -0.148 NA
ATOM     37  N   UNL     1      -3.483  -2.758  -2.311  1.00  0.00    -0.148 NA
ATOM     38  C   UNL     1      -2.615  -2.720  -4.412  1.00  0.00     0.113 A 
ATOM     39  C   UNL     1      -3.461  -3.440  -3.463  1.00  0.00     0.113 A 
ATOM     40  C   UNL     1      -2.387  -3.183  -5.720  1.00  0.00     0.032 A 
ATOM     41  C   UNL     1      -4.103  -4.647  -3.794  1.00  0.00     0.032 A 
ATOM     42  C   UNL     1      -3.038  -4.393  -6.031  1.00  0.00     0.002 A 
ATOM     43  C   UNL     1      -3.860  -5.095  -5.107  1.00  0.00     0.002 A 
ENDBRANCH  30  35
BRANCH  31  44
ATOM     44  C   UNL     1      -3.361  -0.112   2.136  1.00  0.00    -0.010 C 
ATOM     45  C   UNL     1      -2.764   0.840   3.189  1.00  0.00     0.016 C 
ATOM     46  C   UNL     1      -3.063  -1.553   2.620  1.00  0.00     0.016 C 
BRANCH  44  47
ATOM     47  C   UNL     1      -4.899   0.128   1.926  1.00  0.00     0.017 C 
BRANCH  47  48
ATOM     48  C   UNL     1      -5.929   0.279   3.091  1.00  0.00    -0.037 C 
ATOM     49  C   UNL     1      -5.819  -0.816   4.157  1.00  0.00     0.011 C 
ATOM     50  C   UNL     1      -5.850   1.663   3.762  1.00  0.00     0.011 C 
ATOM     51  C   UNL     1      -7.341   0.172   2.458  1.00  0.00     0.011 C 
ENDBRANCH  47  48
ENDBRANCH  44  47
ENDBRANCH  31  44
ENDBRANCH   1  27
TORSDOF 12
