REMARK SMILES CC(C)NCC(O)COc1ccc(COCCOC(C)C)cc1
REMARK SMILES IDX 10 1 11 2 12 3 13 4 22 5 23 6 9 7 8 8 6 9 5 10 4 11 2 13
REMARK SMILES IDX 1 14 3 15 7 16 14 18 15 19 16 20 17 21 18 22 19 23 20 24
REMARK SMILES IDX 21 25
REMARK H PARENT 4 12 7 17
ROOT
ATOM      1  C   UNL     1      -0.760  -1.615  -0.249  1.00  0.00     0.119 A 
ATOM      2  C   UNL     1      -0.372  -0.499   0.490  1.00  0.00     0.047 A 
ATOM      3  C   UNL     1       0.978  -0.149   0.566  1.00  0.00     0.010 A 
ATOM      4  C   UNL     1       1.952  -0.915  -0.090  1.00  0.00    -0.022 A 
ATOM      5  C   UNL     1       1.553  -2.060  -0.793  1.00  0.00     0.010 A 
ATOM      6  C   UNL     1       0.202  -2.409  -0.868  1.00  0.00     0.047 A 
ENDROOT
BRANCH   1   7
ATOM      7  O   UNL     1      -2.058  -2.035  -0.336  1.00  0.00    -0.491 OA
BRANCH   7   8
ATOM      8  C   UNL     1      -2.980  -1.023  -0.774  1.00  0.00     0.262 C 
BRANCH   8   9
ATOM      9  C   UNL     1      -4.110  -0.873   0.252  1.00  0.00     0.165 C 
BRANCH   9  10
ATOM     10  C   UNL     1      -5.343  -0.190  -0.375  1.00  0.00     0.116 C 
BRANCH  10  11
ATOM     11  N   UNL     1      -6.357   0.026   0.674  1.00  0.00    -0.312 NA
ATOM     12  H   UNL     1      -6.622  -0.880   1.067  1.00  0.00     0.123 HD
BRANCH  11  13
ATOM     13  C   UNL     1      -7.578   0.717   0.230  1.00  0.00     0.047 C 
ATOM     14  C   UNL     1      -7.309   2.133  -0.282  1.00  0.00     0.024 C 
ATOM     15  C   UNL     1      -8.384  -0.094  -0.787  1.00  0.00     0.024 C 
ENDBRANCH  11  13
ENDBRANCH  10  11
ENDBRANCH   9  10
BRANCH   9  16
ATOM     16  O   UNL     1      -3.671  -0.067   1.357  1.00  0.00    -0.388 OA
ATOM     17  H   UNL     1      -4.498   0.269   1.760  1.00  0.00     0.211 HD
ENDBRANCH   9  16
ENDBRANCH   8   9
ENDBRANCH   7   8
ENDBRANCH   1   7
BRANCH   4  18
ATOM     18  C   UNL     1       3.410  -0.544   0.005  1.00  0.00     0.195 C 
BRANCH  18  19
ATOM     19  O   UNL     1       3.955  -1.180   1.157  1.00  0.00    -0.374 OA
BRANCH  19  20
ATOM     20  C   UNL     1       5.199  -0.617   1.585  1.00  0.00     0.189 C 
BRANCH  20  21
ATOM     21  C   UNL     1       6.346  -0.868   0.599  1.00  0.00     0.189 C 
BRANCH  21  22
ATOM     22  O   UNL     1       6.298   0.036  -0.512  1.00  0.00    -0.376 OA
BRANCH  22  23
ATOM     23  C   UNL     1       6.927   1.298  -0.273  1.00  0.00     0.112 C 
ATOM     24  C   UNL     1       8.420   1.197  -0.573  1.00  0.00     0.038 C 
ATOM     25  C   UNL     1       6.268   2.312  -1.201  1.00  0.00     0.038 C 
ENDBRANCH  22  23
ENDBRANCH  21  22
ENDBRANCH  20  21
ENDBRANCH  19  20
ENDBRANCH  18  19
ENDBRANCH   4  18
TORSDOF 13
