REMARK SMILES CN(C)CC/C=C1/c2ccccc2CSc2sccc21
REMARK SMILES IDX 4 1 2 2 1 3 3 4 5 5 6 6 7 7 20 8 8 9 16 10 19 11 13 12 9 13
REMARK SMILES IDX 17 14 15 15 18 16 14 17 12 18 10 19 11 20
REMARK H PARENT
ROOT
ATOM      1  C   UNL     1       2.408   0.384   0.603  1.00  0.00     0.088 C 
ENDROOT
BRANCH   1   2
ATOM      2  N   UNL     1       3.725  -0.249   0.808  1.00  0.00    -0.309 NA
ATOM      3  C   UNL     1       4.312   0.218   2.068  1.00  0.00     0.104 C 
ATOM      4  C   UNL     1       4.646   0.025  -0.296  1.00  0.00     0.104 C 
ENDBRANCH   1   2
BRANCH   1   5
ATOM      5  C   UNL     1       1.598  -0.247  -0.547  1.00  0.00     0.043 C 
BRANCH   5   6
ATOM      6  C   UNL     1       0.233   0.386  -0.658  1.00  0.00    -0.016 C 
ATOM      7  C   UNL     1      -0.978  -0.215  -0.602  1.00  0.00    -0.013 C 
ATOM      8  C   UNL     1      -1.178  -1.638  -0.457  1.00  0.00     0.006 A 
ATOM      9  C   UNL     1      -2.133   0.720  -0.627  1.00  0.00    -0.014 A 
ATOM     10  C   UNL     1      -1.992  -2.241   0.493  1.00  0.00     0.068 A 
ATOM     11  C   UNL     1      -0.602  -2.604  -1.350  1.00  0.00     0.021 A 
ATOM     12  C   UNL     1      -2.892   0.920   0.542  1.00  0.00    -0.030 A 
ATOM     13  C   UNL     1      -2.482   1.388  -1.810  1.00  0.00     0.009 A 
ATOM     14  S   UNL     1      -1.985  -3.956   0.318  1.00  0.00    -0.137 S 
ATOM     15  S   UNL     1      -2.991  -1.554   1.779  1.00  0.00    -0.110 SA
ATOM     16  C   UNL     1      -0.947  -3.895  -1.030  1.00  0.00     0.067 A 
ATOM     17  C   UNL     1      -2.533   0.194   1.813  1.00  0.00     0.112 C 
ATOM     18  C   UNL     1      -3.994   1.788   0.502  1.00  0.00     0.005 A 
ATOM     19  C   UNL     1      -3.576   2.253  -1.833  1.00  0.00     0.001 A 
ATOM     20  C   UNL     1      -4.331   2.452  -0.679  1.00  0.00     0.000 A 
ENDBRANCH   5   6
ENDBRANCH   1   5
TORSDOF 3
