REMARK SMILES NC(Cc1ccc(B(O)O)cc1)C(=O)O
REMARK SMILES IDX 3 1 4 2 7 3 6 4 11 5 5 6 12 7 8 8 9 9 10 11 2 13 13 14 14 15
REMARK SMILES IDX 15 16 1 18
REMARK H PARENT 9 10 10 12 15 17 1 19 1 20
ROOT
ATOM      1  C   UNL     1      -1.623   1.168  -0.581  1.00  0.00     0.066 C 
ENDROOT
BRANCH   1   2
ATOM      2  C   UNL     1      -0.269   0.683  -0.293  1.00  0.00    -0.046 A 
ATOM      3  C   UNL     1       2.348  -0.264   0.208  1.00  0.00    -0.018 A 
ATOM      4  C   UNL     1       1.815  -0.299  -1.058  1.00  0.00    -0.000 A 
ATOM      5  C   UNL     1       1.565   0.248   1.231  1.00  0.00    -0.000 A 
ATOM      6  C   UNL     1       0.540   0.164  -1.296  1.00  0.00     0.003 A 
ATOM      7  C   UNL     1       0.285   0.710   0.979  1.00  0.00     0.003 A 
BRANCH   3   8
ATOM      8  B   UNL     1       3.789  -0.786   0.485  1.00  0.00     0.488 B 
BRANCH   8   9
ATOM      9  O   UNL     1       4.865  -0.287  -0.366  1.00  0.00    -0.423 OA
ATOM     10  H   UNL     1       4.615   0.561  -0.768  1.00  0.00     0.189 HD
ENDBRANCH   8   9
BRANCH   8  11
ATOM     11  O   UNL     1       4.128  -1.127   1.864  1.00  0.00    -0.423 OA
ATOM     12  H   UNL     1       4.743  -0.426   2.191  1.00  0.00     0.189 HD
ENDBRANCH   8  11
ENDBRANCH   3   8
ENDBRANCH   1   2
BRANCH   1  13
ATOM     13  C   UNL     1      -2.711   0.148  -0.466  1.00  0.00     0.166 C 
BRANCH  13  14
ATOM     14  C   UNL     1      -2.834  -0.454   0.879  1.00  0.00     0.320 C 
ATOM     15  O   UNL     1      -2.885   0.223   1.945  1.00  0.00    -0.251 OA
BRANCH  14  16
ATOM     16  O   UNL     1      -2.899  -1.849   1.028  1.00  0.00    -0.480 OA
ATOM     17  H   UNL     1      -3.515  -2.278   1.713  1.00  0.00     0.296 HD
ENDBRANCH  14  16
ENDBRANCH  13  14
BRANCH  13  18
ATOM     18  N   UNL     1      -2.674  -0.860  -1.512  1.00  0.00    -0.318 NA
ATOM     19  H   UNL     1      -2.545  -0.353  -2.409  1.00  0.00     0.119 HD
ATOM     20  H   UNL     1      -3.639  -1.279  -1.517  1.00  0.00     0.119 HD
ENDBRANCH  13  18
ENDBRANCH   1  13
TORSDOF 8
