REMARK SMILES O=C(O)CCC(=O)c1ccc(C2CCCCC2)c(Cl)c1
REMARK SMILES IDX 4 1 2 2 1 3 3 4 5 6 6 7 7 8 8 9 20 10 9 11 18 12 10 13 11 14
REMARK SMILES IDX 19 15 12 16 13 17 17 18 14 19 16 20 15 21
REMARK H PARENT 3 5
ROOT
ATOM      1  C   UNL     1       4.827  -1.215  -0.762  1.00  0.00     0.131 C 
ENDROOT
BRANCH   1   2
ATOM      2  C   UNL     1       5.857  -0.559  -1.635  1.00  0.00     0.303 C 
ATOM      3  O   UNL     1       6.191   0.613  -1.626  1.00  0.00    -0.252 OA
BRANCH   2   4
ATOM      4  O   UNL     1       6.400  -1.424  -2.512  1.00  0.00    -0.481 OA
ATOM      5  H   UNL     1       7.046  -0.887  -3.018  1.00  0.00     0.296 HD
ENDBRANCH   2   4
ENDBRANCH   1   2
BRANCH   1   6
ATOM      6  C   UNL     1       4.374  -0.277   0.347  1.00  0.00     0.093 C 
BRANCH   6   7
ATOM      7  C   UNL     1       3.308  -0.942   1.187  1.00  0.00     0.163 C 
ATOM      8  O   UNL     1       3.614  -1.768   2.046  1.00  0.00    -0.294 OA
BRANCH   7   9
ATOM      9  C   UNL     1       1.868  -0.613   0.969  1.00  0.00     0.019 A 
ATOM     10  C   UNL     1       1.405   0.031  -0.180  1.00  0.00     0.032 A 
ATOM     11  C   UNL     1       0.949  -0.990   1.951  1.00  0.00     0.012 A 
ATOM     12  C   UNL     1       0.038   0.311  -0.340  1.00  0.00     0.045 A 
ATOM     13  C   UNL     1      -0.411  -0.711   1.793  1.00  0.00     0.006 A 
ATOM     14  C   UNL     1      -0.897  -0.052   0.647  1.00  0.00    -0.026 A 
ATOM     15  Cl  UNL     1      -0.403   1.103  -1.813  1.00  0.00    -0.084 Cl
BRANCH  14  16
ATOM     16  C   UNL     1      -2.397   0.210   0.574  1.00  0.00     0.021 C 
ATOM     17  C   UNL     1      -3.102  -0.578  -0.550  1.00  0.00     0.008 C 
ATOM     18  C   UNL     1      -2.762   1.702   0.573  1.00  0.00     0.008 C 
ATOM     19  C   UNL     1      -4.351   0.126  -1.085  1.00  0.00     0.001 C 
ATOM     20  C   UNL     1      -4.273   1.914   0.712  1.00  0.00     0.001 C 
ATOM     21  C   UNL     1      -5.113   0.835   0.026  1.00  0.00     0.000 C 
ENDBRANCH  14  16
ENDBRANCH   7   9
ENDBRANCH   6   7
ENDBRANCH   1   6
TORSDOF 6
