REMARK SMILES CCCCNC(=O)c1ccc(Cl)cc1O
REMARK SMILES IDX 5 1 6 2 7 3 4 5 3 6 2 7 1 8 8 9 14 10 9 11 13 12 10 13 11 14
REMARK SMILES IDX 12 15 15 16
REMARK H PARENT 5 4 15 17
ROOT
ATOM      1  N   UNL     1      -0.279   0.182  -0.030  1.00  0.00    -0.352 N 
ATOM      2  C   UNL     1       0.796  -0.522  -0.535  1.00  0.00     0.255 C 
ATOM      3  O   UNL     1       0.683  -1.521  -1.240  1.00  0.00    -0.269 OA
ATOM      4  H   UNL     1      -0.126   1.144   0.241  1.00  0.00     0.163 HD
ENDROOT
BRANCH   1   5
ATOM      5  C   UNL     1      -1.633  -0.187  -0.402  1.00  0.00     0.116 C 
BRANCH   5   6
ATOM      6  C   UNL     1      -2.654   0.461   0.528  1.00  0.00     0.021 C 
BRANCH   6   7
ATOM      7  C   UNL     1      -4.103   0.193   0.117  1.00  0.00    -0.002 C 
ATOM      8  C   UNL     1      -4.502  -1.270   0.222  1.00  0.00     0.004 C 
ENDBRANCH   6   7
ENDBRANCH   5   6
ENDBRANCH   1   5
BRANCH   2   9
ATOM      9  C   UNL     1       2.158   0.004  -0.239  1.00  0.00     0.081 A 
ATOM     10  C   UNL     1       3.238  -0.369  -1.058  1.00  0.00     0.129 A 
ATOM     11  C   UNL     1       2.397   0.849   0.855  1.00  0.00     0.019 A 
ATOM     12  C   UNL     1       4.521   0.120  -0.818  1.00  0.00     0.067 A 
ATOM     13  C   UNL     1       3.686   1.335   1.100  1.00  0.00     0.021 A 
ATOM     14  C   UNL     1       4.739   0.974   0.259  1.00  0.00     0.044 A 
ATOM     15  Cl  UNL     1       6.320   1.580   0.566  1.00  0.00    -0.084 Cl
BRANCH  10  16
ATOM     16  O   UNL     1       3.108  -1.221  -2.124  1.00  0.00    -0.507 OA
ATOM     17  H   UNL     1       2.201  -1.606  -2.096  1.00  0.00     0.293 HD
ENDBRANCH  10  16
ENDBRANCH   2   9
TORSDOF 5
