REMARK SMILES CCCCC1C(=O)NC(=O)N(C2CCCCC2)C1=O
REMARK SMILES IDX 3 1 2 2 1 3 4 4 5 5 6 6 18 7 7 8 8 9 11 10 19 11 9 12 10 13
REMARK SMILES IDX 12 15 13 16 17 17 14 18 16 19 15 20
REMARK H PARENT 8 14
ROOT
ATOM      1  C   UNL     1       3.836   0.994  -0.519  1.00  0.00     0.001 C 
ENDROOT
BRANCH   1   2
ATOM      2  C   UNL     1       4.565   1.842   0.526  1.00  0.00    -0.003 C 
ATOM      3  C   UNL     1       4.553   1.231   1.918  1.00  0.00     0.004 C 
ENDBRANCH   1   2
BRANCH   1   4
ATOM      4  C   UNL     1       2.329   0.878  -0.260  1.00  0.00     0.023 C 
BRANCH   4   5
ATOM      5  C   UNL     1       1.594   0.160  -1.404  1.00  0.00     0.168 C 
ATOM      6  C   UNL     1       1.905  -1.304  -1.400  1.00  0.00     0.240 C 
ATOM      7  C   UNL     1       0.114   0.405  -1.254  1.00  0.00     0.243 C 
ATOM      8  O   UNL     1       2.802  -1.805  -2.071  1.00  0.00    -0.274 OA
ATOM      9  N   UNL     1       1.147  -2.054  -0.554  1.00  0.00    -0.277 N 
ATOM     10  N   UNL     1      -0.577  -0.468  -0.420  1.00  0.00    -0.260 N 
ATOM     11  O   UNL     1      -0.409   1.370  -1.815  1.00  0.00    -0.273 OA
ATOM     12  C   UNL     1      -0.134  -1.760  -0.192  1.00  0.00     0.331 C 
ATOM     13  O   UNL     1      -0.834  -2.670   0.249  1.00  0.00    -0.248 OA
ATOM     14  H   UNL     1       1.365  -3.042  -0.534  1.00  0.00     0.174 HD
BRANCH  10  15
ATOM     15  C   UNL     1      -1.981  -0.130  -0.109  1.00  0.00     0.095 C 
ATOM     16  C   UNL     1      -2.976  -0.841  -1.039  1.00  0.00     0.026 C 
ATOM     17  C   UNL     1      -2.337  -0.312   1.383  1.00  0.00     0.026 C 
ATOM     18  C   UNL     1      -4.408  -0.344  -0.828  1.00  0.00     0.002 C 
ATOM     19  C   UNL     1      -3.811  -0.650   1.615  1.00  0.00     0.002 C 
ATOM     20  C   UNL     1      -4.714   0.060   0.616  1.00  0.00     0.000 C 
ENDBRANCH  10  15
ENDBRANCH   4   5
ENDBRANCH   1   4
TORSDOF 4
