REMARK SMILES Cc1ccc(Cl)c(OCC(O)CNC(C)(C)C)c1
REMARK SMILES IDX 10 1 9 2 8 3 7 4 2 5 18 6 3 7 4 8 5 9 1 10 6 11 11 12 12 14
REMARK SMILES IDX 13 15 14 17 15 18 16 19 17 20
REMARK H PARENT 11 13 13 16
ROOT
ATOM      1  C   UNL     1       0.872  -1.473  -1.083  1.00  0.00     0.165 C 
ENDROOT
BRANCH   1   2
ATOM      2  C   UNL     1      -0.434  -0.811  -0.626  1.00  0.00     0.262 C 
BRANCH   2   3
ATOM      3  O   UNL     1      -1.451  -1.834  -0.614  1.00  0.00    -0.489 OA
BRANCH   3   4
ATOM      4  C   UNL     1      -2.573  -1.379   0.030  1.00  0.00     0.138 A 
ATOM      5  C   UNL     1      -4.663  -0.150  -0.062  1.00  0.00    -0.047 A 
ATOM      6  C   UNL     1      -3.487  -0.594  -0.679  1.00  0.00     0.051 A 
ATOM      7  C   UNL     1      -4.904  -0.492   1.275  1.00  0.00     0.005 A 
ATOM      8  C   UNL     1      -4.000  -1.295   1.977  1.00  0.00     0.025 A 
ATOM      9  C   UNL     1      -2.838  -1.747   1.352  1.00  0.00     0.083 A 
ATOM     10  C   UNL     1      -5.627   0.727  -0.806  1.00  0.00     0.044 C 
ATOM     11  Cl  UNL     1      -1.746  -2.741   2.243  1.00  0.00    -0.080 Cl
ENDBRANCH   3   4
ENDBRANCH   2   3
ENDBRANCH   1   2
BRANCH   1  12
ATOM     12  O   UNL     1       0.682  -2.036  -2.391  1.00  0.00    -0.388 OA
ATOM     13  H   UNL     1      -0.137  -2.566  -2.330  1.00  0.00     0.211 HD
ENDBRANCH   1  12
BRANCH   1  14
ATOM     14  C   UNL     1       2.044  -0.476  -1.143  1.00  0.00     0.116 C 
BRANCH  14  15
ATOM     15  N   UNL     1       2.369   0.067   0.180  1.00  0.00    -0.309 NA
ATOM     16  H   UNL     1       2.666  -0.703   0.783  1.00  0.00     0.123 HD
BRANCH  15  17
ATOM     17  C   UNL     1       3.400   1.123   0.209  1.00  0.00     0.010 C 
ATOM     18  C   UNL     1       4.750   0.632  -0.340  1.00  0.00     0.027 C 
ATOM     19  C   UNL     1       3.584   1.499   1.693  1.00  0.00     0.027 C 
ATOM     20  C   UNL     1       2.946   2.378  -0.553  1.00  0.00     0.027 C 
ENDBRANCH  15  17
ENDBRANCH  14  15
ENDBRANCH   1  14
TORSDOF 7
