REMARK SMILES CCCCNCC(=O)Nc1c(C)cccc1Cl
REMARK SMILES IDX 5 1 4 3 3 4 2 5 1 6 6 7 7 8 8 9 9 10 10 12 11 13 16 14 13 15
REMARK SMILES IDX 15 16 14 17 12 18 17 19
REMARK H PARENT 5 2 9 11
ROOT
ATOM      1  N   UNL     1       1.457  -0.131  -1.093  1.00  0.00    -0.308 NA
ATOM      2  H   UNL     1       1.689   0.782  -0.689  1.00  0.00     0.123 HD
ENDROOT
BRANCH   1   3
ATOM      3  C   UNL     1       2.697  -0.874  -1.331  1.00  0.00     0.081 C 
BRANCH   3   4
ATOM      4  C   UNL     1       3.615  -0.854  -0.106  1.00  0.00     0.015 C 
BRANCH   4   5
ATOM      5  C   UNL     1       2.990  -1.506   1.130  1.00  0.00    -0.002 C 
ATOM      6  C   UNL     1       3.957  -1.499   2.305  1.00  0.00     0.004 C 
ENDBRANCH   4   5
ENDBRANCH   3   4
ENDBRANCH   1   3
BRANCH   1   7
ATOM      7  C   UNL     1       0.755   0.127  -2.375  1.00  0.00     0.182 C 
BRANCH   7   8
ATOM      8  C   UNL     1      -0.643   0.715  -2.131  1.00  0.00     0.238 C 
ATOM      9  O   UNL     1      -1.353   1.070  -3.068  1.00  0.00    -0.273 OA
ATOM     10  N   UNL     1      -1.006   0.694  -0.791  1.00  0.00    -0.323 N 
ATOM     11  H   UNL     1      -0.498  -0.031  -0.286  1.00  0.00     0.170 HD
BRANCH  10  12
ATOM     12  C   UNL     1      -2.264   1.109  -0.298  1.00  0.00     0.062 A 
ATOM     13  C   UNL     1      -2.936   0.260   0.608  1.00  0.00    -0.026 A 
ATOM     14  C   UNL     1      -2.843   2.352  -0.632  1.00  0.00     0.064 A 
ATOM     15  C   UNL     1      -4.189   0.646   1.117  1.00  0.00     0.005 A 
ATOM     16  C   UNL     1      -4.097   2.709  -0.121  1.00  0.00     0.023 A 
ATOM     17  C   UNL     1      -4.773   1.854   0.743  1.00  0.00     0.002 A 
ATOM     18  C   UNL     1      -2.365  -1.066   1.039  1.00  0.00     0.046 C 
ATOM     19  Cl  UNL     1      -2.003   3.583  -1.516  1.00  0.00    -0.082 Cl
ENDBRANCH  10  12
ENDBRANCH   7   8
ENDBRANCH   1   7
TORSDOF 6
