REMARK SMILES CCCCOc1ccc(/N=N/c2ccc(N)nc2N)cn1
REMARK SMILES IDX 6 1 21 2 20 3 9 4 8 5 7 6 5 7 4 8 3 9 2 10 1 11 10 12 11 13
REMARK SMILES IDX 12 14 18 15 13 16 17 17 14 18 15 19 19 20 16 23
REMARK H PARENT 19 21 19 22 16 24 16 25
ROOT
ATOM      1  C   UNL     1      -2.221  -1.220  -0.542  1.00  0.00     0.213 A 
ATOM      2  N   UNL     1      -1.902  -0.588   0.605  1.00  0.00    -0.220 NA
ATOM      3  C   UNL     1      -0.633  -0.121   0.707  1.00  0.00     0.145 A 
ATOM      4  C   UNL     1       0.346  -0.255  -0.273  1.00  0.00     0.104 A 
ATOM      5  C   UNL     1      -0.033  -0.900  -1.453  1.00  0.00     0.037 A 
ATOM      6  C   UNL     1      -1.330  -1.392  -1.591  1.00  0.00     0.071 A 
ENDROOT
BRANCH   1   7
ATOM      7  O   UNL     1      -3.493  -1.708  -0.744  1.00  0.00    -0.478 OA
BRANCH   7   8
ATOM      8  C   UNL     1      -4.384  -1.618   0.369  1.00  0.00     0.231 C 
BRANCH   8   9
ATOM      9  C   UNL     1      -5.457  -0.559   0.117  1.00  0.00     0.041 C 
BRANCH   9  10
ATOM     10  C   UNL     1      -4.901   0.866   0.104  1.00  0.00     0.000 C 
ATOM     11  C   UNL     1      -6.009   1.892  -0.077  1.00  0.00     0.004 C 
ENDBRANCH   9  10
ENDBRANCH   8   9
ENDBRANCH   7   8
ENDBRANCH   1   7
BRANCH   4  12
ATOM     12  N   UNL     1       1.625   0.293  -0.069  1.00  0.00    -0.149 NA
ATOM     13  N   UNL     1       2.521  -0.547  -0.309  1.00  0.00    -0.147 NA
BRANCH  13  14
ATOM     14  C   UNL     1       3.799   0.010  -0.091  1.00  0.00     0.128 A 
ATOM     15  C   UNL     1       4.685  -0.570   0.834  1.00  0.00     0.153 A 
ATOM     16  C   UNL     1       4.254   1.114  -0.816  1.00  0.00     0.038 A 
ATOM     17  N   UNL     1       5.927  -0.093   1.061  1.00  0.00    -0.212 NA
ATOM     18  C   UNL     1       5.535   1.607  -0.585  1.00  0.00     0.049 A 
ATOM     19  C   UNL     1       6.333   0.975   0.356  1.00  0.00     0.125 A 
BRANCH  15  20
ATOM     20  N   UNL     1       4.292  -1.697   1.589  1.00  0.00    -0.382 N 
ATOM     21  H   UNL     1       4.003  -2.428   0.944  1.00  0.00     0.158 HD
ATOM     22  H   UNL     1       3.466  -1.442   2.124  1.00  0.00     0.158 HD
ENDBRANCH  15  20
BRANCH  19  23
ATOM     23  N   UNL     1       7.611   1.454   0.634  1.00  0.00    -0.384 N 
ATOM     24  H   UNL     1       8.181   1.507  -0.202  1.00  0.00     0.158 HD
ATOM     25  H   UNL     1       8.012   0.818   1.321  1.00  0.00     0.158 HD
ENDBRANCH  19  23
ENDBRANCH  13  14
ENDBRANCH   4  12
TORSDOF 8
