REMARK SMILES CCCCOC(=O)c1ccc(N)cc1
REMARK SMILES IDX 5 1 4 2 3 3 2 4 1 5 6 6 7 7 8 8 9 9 14 10 10 11 13 12 11 13
REMARK SMILES IDX 12 14
REMARK H PARENT 12 15 12 16
ROOT
ATOM      1  O   UNL     1      -0.398  -0.069  -0.934  1.00  0.00    -0.462 OA
ENDROOT
BRANCH   1   2
ATOM      2  C   UNL     1      -1.780   0.151  -1.258  1.00  0.00     0.233 C 
BRANCH   2   3
ATOM      3  C   UNL     1      -2.670  -0.401  -0.149  1.00  0.00     0.041 C 
BRANCH   3   4
ATOM      4  C   UNL     1      -4.150  -0.235  -0.483  1.00  0.00     0.000 C 
ATOM      5  C   UNL     1      -5.036  -0.788   0.621  1.00  0.00     0.004 C 
ENDBRANCH   3   4
ENDBRANCH   2   3
ENDBRANCH   1   2
BRANCH   1   6
ATOM      6  C   UNL     1       0.190   0.891  -0.176  1.00  0.00     0.338 C 
ATOM      7  O   UNL     1      -0.348   1.903   0.243  1.00  0.00    -0.246 OA
BRANCH   6   8
ATOM      8  C   UNL     1       1.614   0.548   0.090  1.00  0.00     0.060 A 
ATOM      9  C   UNL     1       2.374   1.430   0.865  1.00  0.00     0.018 A 
ATOM     10  C   UNL     1       2.209  -0.626  -0.387  1.00  0.00     0.018 A 
ATOM     11  C   UNL     1       3.716   1.149   1.144  1.00  0.00     0.026 A 
ATOM     12  C   UNL     1       3.552  -0.898  -0.104  1.00  0.00     0.026 A 
ATOM     13  C   UNL     1       4.330   0.009   0.620  1.00  0.00     0.031 A 
BRANCH  13  14
ATOM     14  N   UNL     1       5.633  -0.327   1.001  1.00  0.00    -0.399 N 
ATOM     15  H   UNL     1       6.100  -0.963   0.362  1.00  0.00     0.156 HD
ATOM     16  H   UNL     1       6.212   0.472   1.242  1.00  0.00     0.156 HD
ENDBRANCH  13  14
ENDBRANCH   6   8
ENDBRANCH   1   6
TORSDOF 6
