REMARK SMILES CC(C)CNCCOC(=O)c1ccc(N)cc1
REMARK SMILES IDX 7 1 6 2 5 3 4 5 2 6 1 7 3 8 8 9 9 10 10 11 11 12 12 13 17 14
REMARK SMILES IDX 13 15 16 16 14 17 15 18
REMARK H PARENT 5 4 15 19 15 20
ROOT
ATOM      1  C   UNL     1      -0.640  -1.710  -0.422  1.00  0.00     0.248 C 
ENDROOT
BRANCH   1   2
ATOM      2  C   UNL     1      -1.519  -1.186   0.726  1.00  0.00     0.122 C 
BRANCH   2   3
ATOM      3  N   UNL     1      -1.752   0.266   0.735  1.00  0.00    -0.313 NA
ATOM      4  H   UNL     1      -2.281   0.511   1.572  1.00  0.00     0.122 HD
BRANCH   3   5
ATOM      5  C   UNL     1      -2.420   0.802  -0.450  1.00  0.00     0.084 C 
BRANCH   5   6
ATOM      6  C   UNL     1      -3.845   0.276  -0.721  1.00  0.00    -0.004 C 
ATOM      7  C   UNL     1      -4.800   0.551   0.443  1.00  0.00     0.009 C 
ATOM      8  C   UNL     1      -4.394   0.913  -2.000  1.00  0.00     0.009 C 
ENDBRANCH   5   6
ENDBRANCH   3   5
ENDBRANCH   2   3
ENDBRANCH   1   2
BRANCH   1   9
ATOM      9  O   UNL     1       0.635  -1.048  -0.457  1.00  0.00    -0.461 OA
BRANCH   9  10
ATOM     10  C   UNL     1       1.549  -1.496   0.438  1.00  0.00     0.338 C 
ATOM     11  O   UNL     1       1.403  -2.437   1.202  1.00  0.00    -0.246 OA
BRANCH  10  12
ATOM     12  C   UNL     1       2.796  -0.690   0.354  1.00  0.00     0.060 A 
ATOM     13  C   UNL     1       3.913  -1.115   1.083  1.00  0.00     0.018 A 
ATOM     14  C   UNL     1       2.882   0.486  -0.401  1.00  0.00     0.018 A 
ATOM     15  C   UNL     1       5.105  -0.386   1.036  1.00  0.00     0.026 A 
ATOM     16  C   UNL     1       4.080   1.209  -0.441  1.00  0.00     0.026 A 
ATOM     17  C   UNL     1       5.215   0.753   0.233  1.00  0.00     0.031 A 
BRANCH  17  18
ATOM     18  N   UNL     1       6.369   1.542   0.284  1.00  0.00    -0.399 N 
ATOM     19  H   UNL     1       6.493   2.144  -0.523  1.00  0.00     0.156 HD
ATOM     20  H   UNL     1       7.212   1.026   0.515  1.00  0.00     0.156 HD
ENDBRANCH  17  18
ENDBRANCH  10  12
ENDBRANCH   9  10
ENDBRANCH   1   9
TORSDOF 8
