REMARK SMILES C[C@H]1CO[C@@H]2Cn3cc(C(=O)NCc4ccc(F)cc4F)c(=O)c(O)c3C(=O)N12
REMARK SMILES IDX 10 1 11 2 12 3 9 5 2 6 3 7 29 8 4 9 5 10 27 11 6 12 28 13
REMARK SMILES IDX 26 14 7 15 24 16 8 17 22 18 23 19 1 20 25 21 13 23 14 24
REMARK SMILES IDX 20 25 15 26 19 27 16 28 17 29 21 30 18 31
REMARK H PARENT 12 4 25 22
ROOT
ATOM      1  C   UNL     1       2.008   0.664  -1.393  1.00  0.00     0.257 C 
ATOM      2  O   UNL     1       2.250  -0.074  -2.344  1.00  0.00    -0.269 OA
ATOM      3  N   UNL     1       2.912   1.566  -0.898  1.00  0.00    -0.348 N 
ATOM      4  H   UNL     1       2.669   2.106  -0.068  1.00  0.00     0.164 HD
ENDROOT
BRANCH   1   5
ATOM      5  C   UNL     1       0.693   0.627  -0.697  1.00  0.00     0.107 C 
ATOM      6  C   UNL     1      -5.472  -0.854   0.789  1.00  0.00     0.111 C 
ATOM      7  C   UNL     1      -6.041  -1.439  -0.497  1.00  0.00     0.187 C 
ATOM      8  N   UNL     1      -4.192  -0.348   0.350  1.00  0.00    -0.305 N 
ATOM      9  O   UNL     1      -4.888  -1.781  -1.289  1.00  0.00    -0.354 OA
ATOM     10  C   UNL     1      -3.905  -0.778  -0.992  1.00  0.00     0.237 C 
ATOM     11  C   UNL     1      -3.231   0.176   1.191  1.00  0.00     0.276 C 
ATOM     12  C   UNL     1      -2.484  -1.330  -1.137  1.00  0.00     0.177 C 
ATOM     13  O   UNL     1      -3.452   0.384   2.379  1.00  0.00    -0.267 OA
ATOM     14  C   UNL     1      -1.865   0.398   0.550  1.00  0.00     0.153 C 
ATOM     15  N   UNL     1      -1.523  -0.347  -0.602  1.00  0.00    -0.335 N 
ATOM     16  C   UNL     1      -1.019   1.290   1.102  1.00  0.00     0.194 C 
ATOM     17  C   UNL     1      -0.254  -0.212  -1.147  1.00  0.00     0.104 C 
ATOM     18  C   UNL     1       0.333   1.456   0.480  1.00  0.00     0.236 C 
ATOM     19  O   UNL     1       1.110   2.277   0.973  1.00  0.00    -0.285 OA
ATOM     20  C   UNL     1      -6.397   0.193   1.392  1.00  0.00     0.034 C 
BRANCH  16  21
ATOM     21  O   UNL     1      -1.301   2.089   2.192  1.00  0.00    -0.503 OA
ATOM     22  H   UNL     1      -0.486   2.602   2.369  1.00  0.00     0.293 HD
ENDBRANCH  16  21
ENDBRANCH   1   5
BRANCH   3  23
ATOM     23  C   UNL     1       4.262   1.675  -1.397  1.00  0.00     0.155 C 
BRANCH  23  24
ATOM     24  C   UNL     1       5.216   0.863  -0.566  1.00  0.00     0.007 A 
ATOM     25  C   UNL     1       5.960   1.463   0.456  1.00  0.00     0.131 A 
ATOM     26  C   UNL     1       5.355  -0.518  -0.777  1.00  0.00     0.011 A 
ATOM     27  C   UNL     1       6.832   0.725   1.248  1.00  0.00     0.078 A 
ATOM     28  C   UNL     1       6.229  -1.266   0.013  1.00  0.00     0.040 A 
ATOM     29  C   UNL     1       6.959  -0.637   1.016  1.00  0.00     0.126 A 
ATOM     30  F   UNL     1       5.836   2.778   0.687  1.00  0.00    -0.207 F 
ATOM     31  F   UNL     1       7.796  -1.359   1.773  1.00  0.00    -0.207 F 
ENDBRANCH  23  24
ENDBRANCH   3  23
TORSDOF 4
