REMARK SMILES C=C1/C(=C\C=C2/CCC[C@]3(C)[C@@H]([C@H](C)/C=C/[C@@H](O)C4CC4)CC[C@@H]23)C[C@@H](O)C[C@@H]1O
REMARK SMILES IDX 14 1 13 2 15 3 16 4 17 5 18 6 19 8 20 9 21 10 12 11 22 12
REMARK SMILES IDX 10 13 23 14 9 15 24 16 8 17 6 18 7 19 5 20 11 21 4 22 3 23
REMARK SMILES IDX 25 24 2 25 26 26 29 27 1 28 28 29 27 30 30 32
REMARK H PARENT 18 7 27 31 30 33
ROOT
ATOM      1  C   UNL     1       4.176   2.388   1.750  1.00  0.00     0.012 C 
ATOM      2  C   UNL     1       3.398   1.100   1.435  1.00  0.00     0.012 C 
ENDROOT
BRANCH   2   3
ATOM      3  C   UNL     1       3.867   0.598   0.089  1.00  0.00    -0.025 C 
ATOM      4  C   UNL     1       4.603  -0.516  -0.078  1.00  0.00     0.000 C 
BRANCH   4   5
ATOM      5  C   UNL     1       5.118  -1.082  -1.378  1.00  0.00     0.140 C 
BRANCH   5   6
ATOM      6  O   UNL     1       4.805  -0.213  -2.461  1.00  0.00    -0.389 OA
ATOM      7  H   UNL     1       5.283   0.613  -2.292  1.00  0.00     0.211 HD
ENDBRANCH   5   6
BRANCH   5   8
ATOM      8  C   UNL     1       6.595  -1.388  -1.347  1.00  0.00     0.022 C 
ATOM      9  C   UNL     1       7.481  -1.244  -2.563  1.00  0.00     0.007 C 
ATOM     10  C   UNL     1       7.649  -0.306  -1.398  1.00  0.00     0.007 C 
ENDBRANCH   5   8
ENDBRANCH   4   5
ENDBRANCH   2   3
BRANCH   2  11
ATOM     11  C   UNL     1       1.875   1.346   1.585  1.00  0.00     0.002 C 
ATOM     12  C   UNL     1       1.237   2.356   0.600  1.00  0.00     0.005 C 
ATOM     13  C   UNL     1       0.899   0.134   1.556  1.00  0.00    -0.023 C 
ATOM     14  C   UNL     1      -0.251   1.972   0.493  1.00  0.00     0.009 C 
ATOM     15  C   UNL     1       0.972  -0.753   2.814  1.00  0.00     0.008 C 
ATOM     16  C   UNL     1      -0.450   0.903   1.573  1.00  0.00     0.021 C 
ATOM     17  C   UNL     1      -0.235  -1.700   2.911  1.00  0.00     0.005 C 
ATOM     18  C   UNL     1      -1.641  -0.035   1.585  1.00  0.00    -0.067 C 
ATOM     19  C   UNL     1      -1.585  -0.976   2.778  1.00  0.00     0.031 C 
ATOM     20  C   UNL     1      -2.611   0.005   0.649  1.00  0.00    -0.000 C 
ATOM     21  C   UNL     1       1.055  -0.744   0.291  1.00  0.00     0.012 C 
BRANCH  20  22
ATOM     22  C   UNL     1      -3.798  -0.825   0.588  1.00  0.00     0.004 C 
ATOM     23  C   UNL     1      -4.716  -0.841  -0.401  1.00  0.00    -0.040 C 
ATOM     24  C   UNL     1      -5.971  -1.689  -0.294  1.00  0.00     0.067 C 
ATOM     25  C   UNL     1      -4.671  -0.057  -1.638  1.00  0.00    -0.023 C 
ATOM     26  C   UNL     1      -7.251  -0.866  -0.520  1.00  0.00     0.121 C 
ATOM     27  C   UNL     1      -5.900   0.809  -1.852  1.00  0.00     0.146 C 
ATOM     28  C   UNL     1      -3.655  -0.171  -2.510  1.00  0.00     0.015 C 
ATOM     29  C   UNL     1      -7.177  -0.036  -1.801  1.00  0.00     0.068 C 
BRANCH  26  30
ATOM     30  O   UNL     1      -7.498   0.013   0.580  1.00  0.00    -0.393 OA
ATOM     31  H   UNL     1      -7.429  -0.507   1.399  1.00  0.00     0.210 HD
ENDBRANCH  26  30
BRANCH  27  32
ATOM     32  O   UNL     1      -5.849   1.470  -3.117  1.00  0.00    -0.388 OA
ATOM     33  H   UNL     1      -6.551   2.142  -3.102  1.00  0.00     0.211 HD
ENDBRANCH  27  32
ENDBRANCH  20  22
ENDBRANCH   2  11
TORSDOF 8
