REMARK SMILES CC12CCC(CC1=O)C2(C)C
REMARK SMILES IDX 10 1 9 2 11 3 5 4 4 5 3 6 2 7 1 8 7 9 8 10 6 11
REMARK H PARENT
ROOT
ATOM      1  C   UNL     1      -1.508  -1.113   0.863  1.00  0.00     0.012 C 
ATOM      2  C   UNL     1      -0.699  -0.314  -0.178  1.00  0.00    -0.020 C 
ATOM      3  C   UNL     1      -1.148  -0.818  -1.564  1.00  0.00     0.012 C 
ATOM      4  C   UNL     1      -0.790   1.226   0.005  1.00  0.00     0.003 C 
ATOM      5  C   UNL     1      -0.118   1.454   1.384  1.00  0.00     0.005 C 
ATOM      6  C   UNL     1       1.018   0.407   1.400  1.00  0.00     0.015 C 
ATOM      7  C   UNL     1       0.839  -0.317   0.046  1.00  0.00     0.032 C 
ATOM      8  C   UNL     1       1.568  -1.633  -0.078  1.00  0.00     0.020 C 
ATOM      9  C   UNL     1       1.257   0.744  -0.977  1.00  0.00     0.139 C 
ATOM     10  O   UNL     1       2.303   0.765  -1.605  1.00  0.00    -0.299 OA
ATOM     11  C   UNL     1       0.168   1.795  -1.071  1.00  0.00     0.080 C 
ENDROOT
TORSDOF 0
