REMARK SMILES CCOc1nc2cccc(C(=O)OC(C)OC(=O)OC3CCCCC3)c2n1Cc1ccc(-c2ccccc2-c2nnn[nH]2)cc1
REMARK SMILES IDX 11 1 12 2 10 3 4 4 5 5 27 6 6 7 26 8 7 9 8 10 9 11 3 12 2 13
REMARK SMILES IDX 1 14 28 15 29 16 30 17 45 18 31 19 44 20 32 21 33 22 38 23
REMARK SMILES IDX 34 24 37 25 35 26 36 27 39 28 40 29 43 30 41 31 42 32 13 34
REMARK SMILES IDX 14 35 15 36 16 37 17 38 18 39 19 40 20 41 21 42 25 43 22 44
REMARK SMILES IDX 24 45 23 46
REMARK H PARENT 43 33
ROOT
ATOM      1  C   UNL     1       1.878  -3.411   1.146  1.00  0.00     0.343 C 
ATOM      2  O   UNL     1       2.695  -3.596   2.031  1.00  0.00    -0.246 OA
ENDROOT
BRANCH   1   3
ATOM      3  C   UNL     1       1.199  -4.499   0.431  1.00  0.00     0.086 A 
ATOM      4  C   UNL     1      -2.423  -4.585   0.188  1.00  0.00     0.297 A 
ATOM      5  N   UNL     1      -2.096  -5.632  -0.527  1.00  0.00    -0.195 NA
ATOM      6  N   UNL     1      -1.316  -3.937   0.688  1.00  0.00    -0.289 N 
ATOM      7  C   UNL     1      -0.729  -5.683  -0.480  1.00  0.00     0.093 A 
ATOM      8  C   UNL     1      -0.195  -4.621   0.261  1.00  0.00     0.086 A 
ATOM      9  C   UNL     1       0.116  -6.646  -1.054  1.00  0.00     0.031 A 
ATOM     10  C   UNL     1       1.495  -6.549  -0.864  1.00  0.00     0.003 A 
ATOM     11  C   UNL     1       2.025  -5.493  -0.129  1.00  0.00     0.018 A 
BRANCH   4  12
ATOM     12  O   UNL     1      -3.662  -4.178   0.455  1.00  0.00    -0.465 OA
BRANCH  12  13
ATOM     13  C   UNL     1      -4.709  -4.960  -0.122  1.00  0.00     0.229 C 
ATOM     14  C   UNL     1      -5.077  -6.119   0.789  1.00  0.00     0.049 C 
ENDBRANCH  12  13
ENDBRANCH   4  12
BRANCH   6  15
ATOM     15  C   UNL     1      -1.408  -2.820   1.615  1.00  0.00     0.163 C 
BRANCH  15  16
ATOM     16  C   UNL     1      -1.851  -1.530   0.965  1.00  0.00    -0.028 A 
ATOM     17  C   UNL     1      -1.352  -1.100  -0.271  1.00  0.00     0.006 A 
ATOM     18  C   UNL     1      -2.750  -0.695   1.646  1.00  0.00     0.006 A 
ATOM     19  C   UNL     1      -1.745   0.125  -0.817  1.00  0.00     0.009 A 
ATOM     20  C   UNL     1      -3.149   0.526   1.095  1.00  0.00     0.009 A 
ATOM     21  C   UNL     1      -2.647   0.957  -0.140  1.00  0.00    -0.018 A 
BRANCH  21  22
ATOM     22  C   UNL     1      -3.063   2.242  -0.718  1.00  0.00    -0.007 A 
ATOM     23  C   UNL     1      -2.555   3.482  -0.271  1.00  0.00     0.028 A 
ATOM     24  C   UNL     1      -3.994   2.238  -1.775  1.00  0.00     0.009 A 
ATOM     25  C   UNL     1      -2.991   4.672  -0.884  1.00  0.00     0.013 A 
ATOM     26  C   UNL     1      -4.417   3.424  -2.375  1.00  0.00     0.001 A 
ATOM     27  C   UNL     1      -3.916   4.642  -1.930  1.00  0.00     0.001 A 
BRANCH  23  28
ATOM     28  C   UNL     1      -1.586   3.572   0.812  1.00  0.00     0.180 A 
ATOM     29  N   UNL     1      -1.748   3.282   2.087  1.00  0.00    -0.109 NA
ATOM     30  N   UNL     1      -0.304   4.020   0.654  1.00  0.00    -0.239 N 
ATOM     31  N   UNL     1      -0.552   3.572   2.703  1.00  0.00    -0.024 NA
ATOM     32  N   UNL     1       0.333   4.040   1.832  1.00  0.00    -0.048 NA
ATOM     33  H   UNL     1       0.174   4.319  -0.186  1.00  0.00     0.194 HD
ENDBRANCH  23  28
ENDBRANCH  21  22
ENDBRANCH  15  16
ENDBRANCH   6  15
ENDBRANCH   1   3
BRANCH   1  34
ATOM     34  O   UNL     1       1.543  -2.232   0.579  1.00  0.00    -0.422 OA
BRANCH  34  35
ATOM     35  C   UNL     1       2.318  -1.102   1.025  1.00  0.00     0.371 C 
ATOM     36  C   UNL     1       1.781  -0.593   2.362  1.00  0.00     0.102 C 
BRANCH  35  37
ATOM     37  O   UNL     1       2.168  -0.055   0.054  1.00  0.00    -0.394 OA
BRANCH  37  38
ATOM     38  C   UNL     1       3.200   0.821   0.002  1.00  0.00     0.511 C 
ATOM     39  O   UNL     1       4.237   0.749   0.644  1.00  0.00    -0.203 OA
BRANCH  38  40
ATOM     40  O   UNL     1       2.880   1.801  -0.882  1.00  0.00    -0.431 OA
BRANCH  40  41
ATOM     41  C   UNL     1       3.857   2.847  -1.029  1.00  0.00     0.180 C 
ATOM     42  C   UNL     1       3.611   3.524  -2.386  1.00  0.00     0.045 C 
ATOM     43  C   UNL     1       3.728   3.860   0.108  1.00  0.00     0.045 C 
ATOM     44  C   UNL     1       4.083   4.978  -2.443  1.00  0.00     0.004 C 
ATOM     45  C   UNL     1       4.750   4.990  -0.005  1.00  0.00     0.004 C 
ATOM     46  C   UNL     1       5.196   5.263  -1.441  1.00  0.00     0.000 C 
ENDBRANCH  40  41
ENDBRANCH  38  40
ENDBRANCH  37  38
ENDBRANCH  35  37
ENDBRANCH  34  35
ENDBRANCH   1  34
TORSDOF 13
