REMARK SMILES N[C@@H](CCC(=O)N[C@@H](CS(=O)(=O)CCOP(=O)(N(CCCl)CCCl)N(CCCl)CCCl)C(=O)N[C@@H](C(=O)O)c1ccccc1)C(=O)O
REMARK SMILES IDX 10 1 11 2 12 3 9 4 8 5 7 6 5 7 6 8 4 10 3 11 2 12 1 13 45 16
REMARK SMILES IDX 46 17 47 18 32 20 33 21 34 22 35 24 36 25 37 26 38 27 39 29
REMARK SMILES IDX 40 30 44 31 41 32 43 33 42 34 13 35 14 36 15 37 16 38 17 39
REMARK SMILES IDX 18 40 19 41 20 42 21 43 22 44 23 45 24 46 25 47 26 48 27 49
REMARK SMILES IDX 28 50 29 51 30 52 31 53
REMARK H PARENT 7 9 1 14 1 15 47 19 34 23 38 28
ROOT
ATOM      1  S   UNL     1       0.955  -1.972   0.637  1.00  0.00     0.155 S 
ATOM      2  O   UNL     1       1.741  -3.086   0.141  1.00  0.00    -0.229 OA
ATOM      3  O   UNL     1       0.823  -1.768   2.064  1.00  0.00    -0.229 OA
ENDROOT
BRANCH   1   4
ATOM      4  C   UNL     1       1.611  -0.490  -0.106  1.00  0.00     0.172 C 
BRANCH   4   5
ATOM      5  C   UNL     1       2.957  -0.134   0.515  1.00  0.00     0.186 C 
BRANCH   5   6
ATOM      6  N   UNL     1       3.155   1.326   0.558  1.00  0.00    -0.343 N 
ATOM      7  C   UNL     1       2.382   2.161   1.324  1.00  0.00     0.220 C 
ATOM      8  O   UNL     1       1.367   1.785   1.896  1.00  0.00    -0.275 OA
ATOM      9  H   UNL     1       4.055   1.658   0.199  1.00  0.00     0.164 HD
BRANCH   7  10
ATOM     10  C   UNL     1       2.855   3.601   1.317  1.00  0.00     0.102 C 
BRANCH  10  11
ATOM     11  C   UNL     1       2.185   4.430   2.419  1.00  0.00     0.040 C 
BRANCH  11  12
ATOM     12  C   UNL     1       2.523   5.928   2.380  1.00  0.00     0.162 C 
BRANCH  12  13
ATOM     13  N   UNL     1       2.009   6.580   1.161  1.00  0.00    -0.318 NA
ATOM     14  H   UNL     1       1.096   6.203   0.915  1.00  0.00     0.119 HD
ATOM     15  H   UNL     1       2.644   6.382   0.385  1.00  0.00     0.119 HD
ENDBRANCH  12  13
BRANCH  12  16
ATOM     16  C   UNL     1       4.036   6.148   2.496  1.00  0.00     0.320 C 
ATOM     17  O   UNL     1       4.821   6.291   1.567  1.00  0.00    -0.251 OA
BRANCH  16  18
ATOM     18  O   UNL     1       4.477   6.130   3.770  1.00  0.00    -0.480 OA
ATOM     19  H   UNL     1       5.437   6.310   3.680  1.00  0.00     0.296 HD
ENDBRANCH  16  18
ENDBRANCH  12  16
ENDBRANCH  11  12
ENDBRANCH  10  11
ENDBRANCH   7  10
ENDBRANCH   5   6
BRANCH   5  20
ATOM     20  C   UNL     1       4.142  -0.685  -0.312  1.00  0.00     0.244 C 
ATOM     21  O   UNL     1       5.064   0.053  -0.668  1.00  0.00    -0.273 OA
ATOM     22  N   UNL     1       4.114  -2.018  -0.619  1.00  0.00    -0.337 N 
ATOM     23  H   UNL     1       3.470  -2.638  -0.126  1.00  0.00     0.164 HD
BRANCH  22  24
ATOM     24  C   UNL     1       5.235  -2.679  -1.287  1.00  0.00     0.223 C 
BRANCH  24  25
ATOM     25  C   UNL     1       6.266  -3.137  -0.246  1.00  0.00     0.330 C 
ATOM     26  O   UNL     1       6.078  -3.271   0.959  1.00  0.00    -0.250 OA
BRANCH  25  27
ATOM     27  O   UNL     1       7.471  -3.436  -0.783  1.00  0.00    -0.479 OA
ATOM     28  H   UNL     1       8.003  -3.734  -0.012  1.00  0.00     0.296 HD
ENDBRANCH  25  27
ENDBRANCH  24  25
BRANCH  24  29
ATOM     29  C   UNL     1       4.731  -3.836  -2.130  1.00  0.00    -0.014 A 
ATOM     30  C   UNL     1       4.050  -4.920  -1.548  1.00  0.00     0.006 A 
ATOM     31  C   UNL     1       4.915  -3.825  -3.521  1.00  0.00     0.006 A 
ATOM     32  C   UNL     1       3.562  -5.965  -2.333  1.00  0.00     0.000 A 
ATOM     33  C   UNL     1       4.429  -4.875  -4.302  1.00  0.00     0.000 A 
ATOM     34  C   UNL     1       3.753  -5.942  -3.711  1.00  0.00     0.000 A 
ENDBRANCH  24  29
ENDBRANCH  22  24
ENDBRANCH   5  20
ENDBRANCH   4   5
ENDBRANCH   1   4
BRANCH   1  35
ATOM     35  C   UNL     1      -0.680  -2.087  -0.054  1.00  0.00     0.166 C 
BRANCH  35  36
ATOM     36  C   UNL     1      -1.653  -1.159   0.648  1.00  0.00     0.187 C 
BRANCH  36  37
ATOM     37  O   UNL     1      -2.599  -0.676  -0.300  1.00  0.00    -0.305 OA
BRANCH  37  38
ATOM     38  P   UNL     1      -4.163  -0.666   0.131  1.00  0.00     0.346 P 
ATOM     39  O   UNL     1      -4.555  -2.023   0.627  1.00  0.00    -0.255 OA
BRANCH  38  40
ATOM     40  N   UNL     1      -4.311   0.555   1.223  1.00  0.00    -0.217 NA
BRANCH  40  41
ATOM     41  C   UNL     1      -4.511   0.194   2.628  1.00  0.00     0.111 C 
BRANCH  41  42
ATOM     42  C   UNL     1      -5.981  -0.120   2.897  1.00  0.00     0.125 C 
ATOM     43  Cl  UNL     1      -6.224  -0.544   4.608  1.00  0.00    -0.125 Cl
ENDBRANCH  41  42
ENDBRANCH  40  41
BRANCH  40  44
ATOM     44  C   UNL     1      -3.558   1.798   1.017  1.00  0.00     0.111 C 
BRANCH  44  45
ATOM     45  C   UNL     1      -4.182   3.088   1.577  1.00  0.00     0.125 C 
ATOM     46  Cl  UNL     1      -5.851   3.338   1.003  1.00  0.00    -0.125 Cl
ENDBRANCH  44  45
ENDBRANCH  40  44
ENDBRANCH  38  40
BRANCH  38  47
ATOM     47  N   UNL     1      -4.971  -0.175  -1.208  1.00  0.00    -0.217 NA
BRANCH  47  48
ATOM     48  C   UNL     1      -4.488  -0.609  -2.522  1.00  0.00     0.111 C 
BRANCH  48  49
ATOM     49  C   UNL     1      -3.526   0.404  -3.154  1.00  0.00     0.125 C 
ATOM     50  Cl  UNL     1      -4.410   1.822  -3.793  1.00  0.00    -0.125 Cl
ENDBRANCH  48  49
ENDBRANCH  47  48
BRANCH  47  51
ATOM     51  C   UNL     1      -6.429   0.007  -1.145  1.00  0.00     0.111 C 
BRANCH  51  52
ATOM     52  C   UNL     1      -7.291  -1.256  -0.972  1.00  0.00     0.125 C 
ATOM     53  Cl  UNL     1      -7.582  -2.108  -2.515  1.00  0.00    -0.125 Cl
ENDBRANCH  51  52
ENDBRANCH  47  51
ENDBRANCH  38  47
ENDBRANCH  37  38
ENDBRANCH  36  37
ENDBRANCH  35  36
ENDBRANCH   1  35
TORSDOF 28
