REMARK SMILES CSCCNc1nc(SCCC(F)(F)F)nc2c1ncn2[C@@H]1O[C@H](COP(=O)(O)OP(=O)(O)C(Cl)(Cl)P(=O)(O)O)[C@@H](O)[C@H]1O
REMARK SMILES IDX 25 1 24 2 22 3 23 4 43 5 41 6 21 7 6 8 7 9 18 10 8 11 17 12
REMARK SMILES IDX 19 13 16 14 20 15 5 16 4 18 3 19 2 20 1 21 9 22 10 23 11 24
REMARK SMILES IDX 12 25 13 26 14 27 15 28 44 29 42 31 26 33 27 34 28 35 29 36
REMARK SMILES IDX 30 38 31 39 32 40 33 41 34 43 35 44 36 45 37 46 38 47 39 48
REMARK SMILES IDX 40 50
REMARK H PARENT 5 17 44 30 42 32 29 37 33 42 39 49 40 51
ROOT
ATOM      1  C   UNL     1       3.082  -0.251   0.359  1.00  0.00     0.208 C 
ENDROOT
BRANCH   1   2
ATOM      2  C   UNL     1       2.846  -0.214  -1.152  1.00  0.00     0.179 C 
ATOM      3  C   UNL     1       0.621  -0.164  -1.908  1.00  0.00     0.253 C 
ATOM      4  O   UNL     1       1.698  -1.036  -1.463  1.00  0.00    -0.347 OA
ATOM      5  C   UNL     1       1.031   1.253  -1.486  1.00  0.00     0.195 C 
ATOM      6  C   UNL     1       2.538   1.181  -1.689  1.00  0.00     0.179 C 
BRANCH   3   7
ATOM      7  N   UNL     1      -0.620  -0.667  -1.346  1.00  0.00    -0.285 N 
ATOM      8  C   UNL     1      -3.925  -0.431  -0.199  1.00  0.00     0.159 A 
ATOM      9  N   UNL     1      -4.156   0.903  -0.278  1.00  0.00    -0.203 NA
ATOM     10  C   UNL     1      -2.659  -0.899  -0.596  1.00  0.00     0.150 A 
ATOM     11  C   UNL     1      -3.184   1.717  -0.734  1.00  0.00     0.191 A 
ATOM     12  C   UNL     1      -1.749   0.045  -1.043  1.00  0.00     0.168 A 
ATOM     13  N   UNL     1      -2.114  -2.163  -0.632  1.00  0.00    -0.231 NA
ATOM     14  N   UNL     1      -1.946   1.370  -1.145  1.00  0.00    -0.202 NA
ATOM     15  C   UNL     1      -0.898  -1.990  -1.103  1.00  0.00     0.204 A 
BRANCH   8  16
ATOM     16  N   UNL     1      -4.927  -1.303   0.236  1.00  0.00    -0.367 N 
ATOM     17  H   UNL     1      -4.512  -2.204   0.490  1.00  0.00     0.162 HD
BRANCH  16  18
ATOM     18  C   UNL     1      -5.813  -0.764   1.264  1.00  0.00     0.125 C 
BRANCH  18  19
ATOM     19  C   UNL     1      -6.835  -1.824   1.699  1.00  0.00     0.090 C 
BRANCH  19  20
ATOM     20  S   UNL     1      -6.025  -3.248   2.517  1.00  0.00    -0.164 SA
ATOM     21  C   UNL     1      -7.476  -4.312   2.695  1.00  0.00     0.085 C 
ENDBRANCH  19  20
ENDBRANCH  18  19
ENDBRANCH  16  18
ENDBRANCH   8  16
BRANCH  11  22
ATOM     22  S   UNL     1      -3.564   3.451  -0.784  1.00  0.00    -0.086 SA
BRANCH  22  23
ATOM     23  C   UNL     1      -4.815   3.438  -2.108  1.00  0.00     0.087 C 
BRANCH  23  24
ATOM     24  C   UNL     1      -6.214   2.966  -1.722  1.00  0.00     0.127 C 
BRANCH  24  25
ATOM     25  C   UNL     1      -6.916   3.859  -0.727  1.00  0.00     0.389 C 
ATOM     26  F   UNL     1      -6.957   5.137  -1.163  1.00  0.00    -0.171 F 
ATOM     27  F   UNL     1      -8.198   3.450  -0.563  1.00  0.00    -0.171 F 
ATOM     28  F   UNL     1      -6.337   3.849   0.489  1.00  0.00    -0.171 F 
ENDBRANCH  24  25
ENDBRANCH  23  24
ENDBRANCH  22  23
ENDBRANCH  11  22
ENDBRANCH   3   7
BRANCH   5  29
ATOM     29  O   UNL     1       0.440   2.305  -2.237  1.00  0.00    -0.386 OA
ATOM     30  H   UNL     1      -0.512   2.315  -2.002  1.00  0.00     0.211 HD
ENDBRANCH   5  29
BRANCH   6  31
ATOM     31  O   UNL     1       2.840   1.200  -3.092  1.00  0.00    -0.387 OA
ATOM     32  H   UNL     1       3.602   1.795  -3.221  1.00  0.00     0.211 HD
ENDBRANCH   6  31
ENDBRANCH   1   2
BRANCH   1  33
ATOM     33  O   UNL     1       4.245   0.492   0.673  1.00  0.00    -0.284 OA
BRANCH  33  34
ATOM     34  P   UNL     1       5.247  -0.121   1.760  1.00  0.00     0.479 P 
ATOM     35  O   UNL     1       4.676  -0.275   3.128  1.00  0.00    -0.228 OA
BRANCH  34  36
ATOM     36  O   UNL     1       6.461   0.929   1.733  1.00  0.00    -0.302 OA
ATOM     37  H   UNL     1       6.385   1.487   2.541  1.00  0.00     0.223 HD
ENDBRANCH  34  36
BRANCH  34  38
ATOM     38  O   UNL     1       5.862  -1.433   1.111  1.00  0.00    -0.205 OA
BRANCH  38  39
ATOM     39  P   UNL     1       6.940  -1.475  -0.064  1.00  0.00     0.385 P 
ATOM     40  O   UNL     1       6.750  -0.371  -1.061  1.00  0.00    -0.256 OA
BRANCH  39  41
ATOM     41  O   UNL     1       6.556  -2.885  -0.759  1.00  0.00    -0.321 OA
ATOM     42  H   UNL     1       5.790  -2.831  -1.362  1.00  0.00     0.221 HD
ENDBRANCH  39  41
BRANCH  39  43
ATOM     43  C   UNL     1       8.574  -1.669   0.673  1.00  0.00     0.318 C 
ATOM     44  Cl  UNL     1       9.707  -1.946  -0.719  1.00  0.00    -0.075 Cl
ATOM     45  Cl  UNL     1       8.571  -3.193   1.650  1.00  0.00    -0.075 Cl
BRANCH  43  46
ATOM     46  P   UNL     1       9.331  -0.395   1.698  1.00  0.00     0.374 P 
ATOM     47  O   UNL     1      10.785  -0.527   2.035  1.00  0.00    -0.256 OA
BRANCH  46  48
ATOM     48  O   UNL     1       8.510  -0.297   3.083  1.00  0.00    -0.322 OA
ATOM     49  H   UNL     1       9.058   0.170   3.751  1.00  0.00     0.221 HD
ENDBRANCH  46  48
BRANCH  46  50
ATOM     50  O   UNL     1       8.983   1.063   1.114  1.00  0.00    -0.322 OA
ATOM     51  H   UNL     1       8.029   1.232   0.931  1.00  0.00     0.221 HD
ENDBRANCH  46  50
ENDBRANCH  43  46
ENDBRANCH  39  43
ENDBRANCH  38  39
ENDBRANCH  34  38
ENDBRANCH  33  34
ENDBRANCH   1  33
TORSDOF 22
