REMARK SMILES CCOC(C(=O)N(C)CCN(C)CCc1ccccc1)(c1ccccc1)c1ccccc1
REMARK SMILES IDX 7 1 8 2 5 3 6 4 4 5 3 6 2 7 1 8 21 9 22 10 26 11 23 12 25 13
REMARK SMILES IDX 24 14 27 15 28 16 32 17 29 18 31 19 30 20 9 21 10 22 11 23
REMARK SMILES IDX 12 24 13 25 14 26 15 27 16 28 20 29 17 30 19 31 18 32
REMARK H PARENT
ROOT
ATOM      1  N   UNL     1      -0.605   1.204   0.404  1.00  0.00    -0.341 N 
ATOM      2  C   UNL     1      -0.839   0.988   1.828  1.00  0.00     0.146 C 
ENDROOT
BRANCH   1   3
ATOM      3  C   UNL     1      -1.533   0.865  -0.603  1.00  0.00     0.263 C 
ATOM      4  O   UNL     1      -1.321   1.244  -1.762  1.00  0.00    -0.271 OA
BRANCH   3   5
ATOM      5  C   UNL     1      -2.834  -0.032  -0.243  1.00  0.00     0.196 C 
BRANCH   5   6
ATOM      6  O   UNL     1      -2.437  -1.276   0.394  1.00  0.00    -0.356 OA
BRANCH   6   7
ATOM      7  C   UNL     1      -1.322  -1.936  -0.205  1.00  0.00     0.159 C 
ATOM      8  C   UNL     1      -1.465  -3.433   0.013  1.00  0.00     0.035 C 
ENDBRANCH   6   7
ENDBRANCH   5   6
BRANCH   5   9
ATOM      9  C   UNL     1      -3.742   0.755   0.743  1.00  0.00    -0.002 A 
ATOM     10  C   UNL     1      -4.294   0.144   1.883  1.00  0.00     0.007 A 
ATOM     11  C   UNL     1      -4.063   2.104   0.503  1.00  0.00     0.007 A 
ATOM     12  C   UNL     1      -5.112   0.857   2.760  1.00  0.00     0.000 A 
ATOM     13  C   UNL     1      -4.892   2.815   1.373  1.00  0.00     0.000 A 
ATOM     14  C   UNL     1      -5.413   2.192   2.504  1.00  0.00     0.000 A 
ENDBRANCH   5   9
BRANCH   5  15
ATOM     15  C   UNL     1      -3.715  -0.416  -1.476  1.00  0.00    -0.002 A 
ATOM     16  C   UNL     1      -4.384  -1.658  -1.513  1.00  0.00     0.007 A 
ATOM     17  C   UNL     1      -3.958   0.470  -2.544  1.00  0.00     0.007 A 
ATOM     18  C   UNL     1      -5.200  -2.017  -2.593  1.00  0.00     0.000 A 
ATOM     19  C   UNL     1      -4.776   0.112  -3.622  1.00  0.00     0.000 A 
ATOM     20  C   UNL     1      -5.392  -1.134  -3.648  1.00  0.00     0.000 A 
ENDBRANCH   5  15
ENDBRANCH   3   5
ENDBRANCH   1   3
BRANCH   1  21
ATOM     21  C   UNL     1       0.453   2.181   0.069  1.00  0.00     0.134 C 
BRANCH  21  22
ATOM     22  C   UNL     1       1.910   1.741   0.373  1.00  0.00     0.105 C 
BRANCH  22  23
ATOM     23  N   UNL     1       2.578   0.973  -0.694  1.00  0.00    -0.304 NA
ATOM     24  C   UNL     1       1.929  -0.298  -0.990  1.00  0.00     0.105 C 
BRANCH  23  25
ATOM     25  C   UNL     1       4.025   0.813  -0.471  1.00  0.00     0.089 C 
BRANCH  25  26
ATOM     26  C   UNL     1       4.450   0.006   0.776  1.00  0.00     0.051 C 
BRANCH  26  27
ATOM     27  C   UNL     1       5.908  -0.386   0.722  1.00  0.00    -0.047 A 
ATOM     28  C   UNL     1       6.326  -1.393  -0.157  1.00  0.00     0.004 A 
ATOM     29  C   UNL     1       6.861   0.246   1.530  1.00  0.00     0.004 A 
ATOM     30  C   UNL     1       7.669  -1.749  -0.237  1.00  0.00     0.000 A 
ATOM     31  C   UNL     1       8.207  -0.112   1.447  1.00  0.00     0.000 A 
ATOM     32  C   UNL     1       8.611  -1.101   0.558  1.00  0.00     0.000 A 
ENDBRANCH  26  27
ENDBRANCH  25  26
ENDBRANCH  23  25
ENDBRANCH  22  23
ENDBRANCH  21  22
ENDBRANCH   1  21
TORSDOF 12
