REMARK SMILES CC1(C)S[C@@H]2[C@H](NC(=O)C(C(=O)Oc3ccccc3)c3ccccc3)C(=O)N2[C@H]1C(=O)O
REMARK SMILES IDX 7 1 8 2 9 3 6 5 2 6 4 7 29 8 5 9 28 10 26 11 27 12 1 13 3 14
REMARK SMILES IDX 30 15 31 16 32 17 10 19 11 20 12 21 13 22 14 23 15 24 19 25
REMARK SMILES IDX 16 26 18 27 17 28 20 29 21 30 25 31 22 32 24 33 23 34
REMARK H PARENT 7 4 32 18
ROOT
ATOM      1  N   UNL     1       0.208   0.656   1.454  1.00  0.00    -0.341 N 
ATOM      2  C   UNL     1      -0.541  -0.365   1.989  1.00  0.00     0.239 C 
ATOM      3  O   UNL     1      -0.179  -0.940   3.019  1.00  0.00    -0.274 OA
ATOM      4  H   UNL     1      -0.187   1.206   0.687  1.00  0.00     0.164 HD
ENDROOT
BRANCH   1   5
ATOM      5  C   UNL     1       1.478   1.095   2.090  1.00  0.00     0.205 C 
ATOM      6  C   UNL     1       3.683   0.146  -0.672  1.00  0.00     0.044 C 
ATOM      7  S   UNL     1       2.728  -0.964   0.463  1.00  0.00    -0.125 SA
ATOM      8  C   UNL     1       4.297   1.258   0.216  1.00  0.00     0.211 C 
ATOM      9  C   UNL     1       2.736   0.211   1.875  1.00  0.00     0.176 C 
ATOM     10  N   UNL     1       3.427   1.412   1.378  1.00  0.00    -0.311 N 
ATOM     11  C   UNL     1       2.289   2.163   1.319  1.00  0.00     0.250 C 
ATOM     12  O   UNL     1       2.057   3.202   0.746  1.00  0.00    -0.272 OA
ATOM     13  C   UNL     1       2.688   0.731  -1.690  1.00  0.00     0.026 C 
ATOM     14  C   UNL     1       4.692  -0.721  -1.434  1.00  0.00     0.026 C 
BRANCH   8  15
ATOM     15  C   UNL     1       5.738   0.983   0.657  1.00  0.00     0.327 C 
ATOM     16  O   UNL     1       6.715   0.980  -0.079  1.00  0.00    -0.250 OA
BRANCH  15  17
ATOM     17  O   UNL     1       5.897   0.699   1.966  1.00  0.00    -0.480 OA
ATOM     18  H   UNL     1       6.860   0.553   2.070  1.00  0.00     0.296 HD
ENDBRANCH  15  17
ENDBRANCH   8  15
ENDBRANCH   1   5
BRANCH   2  19
ATOM     19  C   UNL     1      -1.794  -0.803   1.236  1.00  0.00     0.218 C 
BRANCH  19  20
ATOM     20  C   UNL     1      -2.506   0.301   0.484  1.00  0.00     0.328 C 
ATOM     21  O   UNL     1      -1.961   1.312   0.051  1.00  0.00    -0.250 OA
BRANCH  20  22
ATOM     22  O   UNL     1      -3.849  -0.040   0.335  1.00  0.00    -0.426 OA
BRANCH  22  23
ATOM     23  C   UNL     1      -4.570   0.887  -0.416  1.00  0.00     0.130 A 
ATOM     24  C   UNL     1      -4.747   0.655  -1.779  1.00  0.00     0.047 A 
ATOM     25  C   UNL     1      -5.159   1.979   0.218  1.00  0.00     0.047 A 
ATOM     26  C   UNL     1      -5.504   1.555  -2.527  1.00  0.00     0.004 A 
ATOM     27  C   UNL     1      -5.914   2.875  -0.537  1.00  0.00     0.004 A 
ATOM     28  C   UNL     1      -6.084   2.665  -1.908  1.00  0.00     0.000 A 
ENDBRANCH  22  23
ENDBRANCH  20  22
ENDBRANCH  19  20
BRANCH  19  29
ATOM     29  C   UNL     1      -1.503  -1.995   0.336  1.00  0.00    -0.024 A 
ATOM     30  C   UNL     1      -0.828  -1.840  -0.886  1.00  0.00     0.005 A 
ATOM     31  C   UNL     1      -1.891  -3.284   0.733  1.00  0.00     0.005 A 
ATOM     32  C   UNL     1      -0.562  -2.946  -1.695  1.00  0.00     0.000 A 
ATOM     33  C   UNL     1      -1.624  -4.387  -0.079  1.00  0.00     0.000 A 
ATOM     34  C   UNL     1      -0.962  -4.218  -1.292  1.00  0.00     0.000 A 
ENDBRANCH  19  29
ENDBRANCH   2  19
TORSDOF 8
