REMARK SMILES COC(=O)CCC[N+](C)(C)C
REMARK SMILES IDX 5 1 3 2 4 3 2 4 1 5 6 6 7 7 8 8 9 9 10 10 11 11
REMARK H PARENT
ROOT
ATOM      1  C   UNL     1       1.291  -0.200   0.171  1.00  0.00     0.128 C 
ENDROOT
BRANCH   1   2
ATOM      2  C   UNL     1       2.604   0.033   0.885  1.00  0.00     0.305 C 
ATOM      3  O   UNL     1       2.809   0.942   1.675  1.00  0.00    -0.252 OA
BRANCH   2   4
ATOM      4  O   UNL     1       3.491  -0.935   0.535  1.00  0.00    -0.469 OA
ATOM      5  C   UNL     1       4.767  -0.814   1.170  1.00  0.00     0.282 C 
ENDBRANCH   2   4
ENDBRANCH   1   2
BRANCH   1   6
ATOM      6  C   UNL     1       0.389   1.028   0.268  1.00  0.00     0.073 C 
BRANCH   6   7
ATOM      7  C   UNL     1      -0.798   1.068  -0.696  1.00  0.00     0.263 C 
BRANCH   7   8
ATOM      8  N   UNL     1      -1.953   0.089  -0.421  1.00  0.00    -0.331 N 
ATOM      9  C   UNL     1      -3.176   0.599  -1.205  1.00  0.00     0.334 C 
ATOM     10  C   UNL     1      -1.654  -1.318  -0.925  1.00  0.00     0.334 C 
ATOM     11  C   UNL     1      -2.336   0.041   1.054  1.00  0.00     0.334 C 
ENDBRANCH   7   8
ENDBRANCH   6   7
ENDBRANCH   1   6
TORSDOF 5
