REMARK SMILES NC(=O)C1(N2CCCCC2)CCN(CCCN2c3ccccc3CCc3ccccc32)CC1
REMARK SMILES IDX 15 1 14 2 13 3 4 4 11 5 33 6 12 7 32 8 2 9 1 10 3 11 5 14
REMARK SMILES IDX 6 15 10 16 7 17 9 18 8 19 16 20 17 21 18 22 19 23 23 24
REMARK SMILES IDX 20 25 22 26 21 27 24 28 31 30 26 31 30 32 27 33 29 34 28 35
REMARK SMILES IDX 25 36
REMARK H PARENT 1 12 1 13
REMARK Flexibility Score:   64.900
ROOT
ATOM      1  C   UNL     1      -1.289  -1.508  -0.560  1.00  0.00     0.037 C 
ENDROOT
BRANCH   1   2
ATOM      2  C   UNL     1       0.180  -1.886  -0.311  1.00  0.00     0.086 C 
BRANCH   2   3
ATOM      3  N   UNL     1       1.146  -1.014  -1.000  1.00  0.00    -0.303 NA
ATOM      4  C   UNL     1       3.270  -0.117   0.955  1.00  0.00     0.103 C 
ATOM      5  C   UNL     1       3.190  -1.543   0.348  1.00  0.00     0.048 C 
ATOM      6  C   UNL     1       1.854   0.520   0.860  1.00  0.00     0.048 C 
ATOM      7  C   UNL     1       2.499  -1.587  -1.012  1.00  0.00     0.087 C 
ATOM      8  C   UNL     1       1.192   0.366  -0.512  1.00  0.00     0.087 C 
BRANCH   4   9
ATOM      9  C   UNL     1       3.536  -0.260   2.496  1.00  0.00     0.238 C 
ATOM     10  N   UNL     1       3.803   0.922   3.141  1.00  0.00    -0.368 N 
ATOM     11  O   UNL     1       3.491  -1.309   3.131  1.00  0.00    -0.273 OA
ATOM     12  H   UNL     1       4.140   0.823   4.090  1.00  0.00     0.159 HD
ATOM     13  H   UNL     1       4.236   1.636   2.565  1.00  0.00     0.159 HD
ENDBRANCH   4   9
BRANCH   4  14
ATOM     14  N   UNL     1       4.392   0.717   0.439  1.00  0.00    -0.289 NA
ATOM     15  C   UNL     1       4.216   1.873  -0.423  1.00  0.00     0.085 C 
ATOM     16  C   UNL     1       5.729   0.130   0.384  1.00  0.00     0.085 C 
ATOM     17  C   UNL     1       4.622   1.607  -1.872  1.00  0.00     0.016 C 
ATOM     18  C   UNL     1       6.167  -0.193  -1.046  1.00  0.00     0.016 C 
ATOM     19  C   UNL     1       6.027   1.021  -1.959  1.00  0.00     0.003 C 
ENDBRANCH   4  14
ENDBRANCH   2   3
ENDBRANCH   1   2
BRANCH   1  20
ATOM     20  C   UNL     1      -1.938  -0.829   0.657  1.00  0.00     0.124 C 
BRANCH  20  21
ATOM     21  N   UNL     1      -3.294  -0.323   0.346  1.00  0.00    -0.341 N 
BRANCH  21  22
ATOM     22  C   UNL     1      -3.646   0.976   0.787  1.00  0.00     0.044 A 
ATOM     23  C   UNL     1      -3.103   1.478   1.994  1.00  0.00     0.026 A 
ATOM     24  C   UNL     1      -4.567   1.801   0.101  1.00  0.00    -0.024 A 
ATOM     25  C   UNL     1      -3.431   2.739   2.499  1.00  0.00     0.002 A 
ATOM     26  C   UNL     1      -4.896   3.071   0.634  1.00  0.00     0.006 A 
ATOM     27  C   UNL     1      -4.329   3.540   1.815  1.00  0.00     0.000 A 
BRANCH  24  28
ATOM     28  C   UNL     1      -5.273   1.450  -1.195  1.00  0.00     0.042 CG0
ATOM     29  G   UNL     1      -4.736   0.288  -2.022  1.00  0.00     0.000 G0
ENDBRANCH  24  28
ENDBRANCH  21  22
BRANCH  21  30
ATOM     30  C   UNL     1      -4.218  -1.277  -0.135  1.00  0.00     0.044 A 
ATOM     31  C   UNL     1      -4.946  -1.019  -1.308  1.00  0.00    -0.024 A 
ATOM     32  C   UNL     1      -4.424  -2.501   0.522  1.00  0.00     0.026 A 
ATOM     33  C   UNL     1      -5.844  -1.973  -1.810  1.00  0.00     0.006 A 
ATOM     34  C   UNL     1      -5.320  -3.448   0.021  1.00  0.00     0.002 A 
ATOM     35  C   UNL     1      -6.028  -3.185  -1.147  1.00  0.00     0.000 A 
BRANCH  31  36
ATOM     36  C   UNL     1      -4.736   0.288  -2.022  1.00  0.00     0.042 CG0
ATOM     37  G   UNL     1      -5.273   1.450  -1.195  1.00  0.00     0.000 G0
ENDBRANCH  31  36
ENDBRANCH  21  30
ENDBRANCH  20  21
ENDBRANCH   1  20
TORSDOF 6
