REMARK SMILES CC/C=C(\C(=O)N[C@@H]1C(=O)N2C(C(=O)OCOC(=O)C(C)(C)C)=C(COC(N)=O)CS[C@H]12)c1csc(N)n1
REMARK SMILES IDX 13 1 14 2 12 3 8 4 32 5 9 6 31 7 11 8 10 9 30 10 24 11 7 12
REMARK SMILES IDX 5 13 6 14 4 16 3 17 2 18 1 19 33 20 34 21 38 22 35 23 36 24
REMARK SMILES IDX 37 25 25 28 26 29 27 30 28 31 29 32 15 35 16 36 17 37 18 38
REMARK SMILES IDX 19 39 20 40 21 41 22 42 23 43
REMARK H PARENT 7 15 37 26 37 27 28 33 28 34
ROOT
ATOM      1  C   UNL     1      -1.960  -1.409   0.906  1.00  0.00     0.358 C 
ATOM      2  O   UNL     1      -2.060  -2.397   1.612  1.00  0.00    -0.244 OA
ENDROOT
BRANCH   1   3
ATOM      3  C   UNL     1      -0.920  -1.197  -0.145  1.00  0.00     0.134 C 
ATOM      4  C   UNL     1       1.339   1.353   0.078  1.00  0.00     0.206 C 
ATOM      5  C   UNL     1       0.728   0.443  -1.032  1.00  0.00     0.181 C 
ATOM      6  C   UNL     1       0.205   0.752   0.979  1.00  0.00     0.253 C 
ATOM      7  S   UNL     1       1.721  -0.903  -1.712  1.00  0.00    -0.129 SA
ATOM      8  N   UNL     1      -0.112  -0.116   0.000  1.00  0.00    -0.289 N 
ATOM      9  O   UNL     1      -0.202   0.898   2.106  1.00  0.00    -0.272 OA
ATOM     10  C   UNL     1       0.264  -1.843  -2.278  1.00  0.00     0.108 C 
ATOM     11  C   UNL     1      -0.805  -2.021  -1.214  1.00  0.00     0.008 C 
BRANCH   4  12
ATOM     12  N   UNL     1       2.726   1.074   0.534  1.00  0.00    -0.338 N 
ATOM     13  C   UNL     1       3.807   1.684  -0.057  1.00  0.00     0.253 C 
ATOM     14  O   UNL     1       3.719   2.483  -0.983  1.00  0.00    -0.269 OA
ATOM     15  H   UNL     1       2.895   0.422   1.295  1.00  0.00     0.164 HD
BRANCH  13  16
ATOM     16  C   UNL     1       5.113   1.303   0.556  1.00  0.00     0.062 C 
ATOM     17  C   UNL     1       5.701   2.190   1.386  1.00  0.00    -0.011 C 
BRANCH  17  18
ATOM     18  C   UNL     1       5.197   3.550   1.781  1.00  0.00     0.025 C 
ATOM     19  C   UNL     1       6.033   4.651   1.145  1.00  0.00     0.008 C 
ENDBRANCH  17  18
BRANCH  16  20
ATOM     20  C   UNL     1       5.658   0.011   0.257  1.00  0.00     0.089 A 
ATOM     21  C   UNL     1       5.448  -0.699  -0.907  1.00  0.00     0.097 A 
ATOM     22  N   UNL     1       6.471  -0.612   1.190  1.00  0.00    -0.220 NA
ATOM     23  S   UNL     1       6.269  -2.201  -0.820  1.00  0.00    -0.105 S 
ATOM     24  C   UNL     1       6.839  -1.788   0.747  1.00  0.00     0.180 A 
BRANCH  24  25
ATOM     25  N   UNL     1       7.624  -2.622   1.449  1.00  0.00    -0.375 N 
ATOM     26  H   UNL     1       8.147  -2.185   2.199  1.00  0.00     0.159 HD
ATOM     27  H   UNL     1       8.156  -3.306   0.925  1.00  0.00     0.159 HD
ENDBRANCH  24  25
ENDBRANCH  16  20
ENDBRANCH  13  16
ENDBRANCH   4  12
BRANCH  11  28
ATOM     28  C   UNL     1      -1.761  -3.174  -1.469  1.00  0.00     0.269 C 
BRANCH  28  29
ATOM     29  O   UNL     1      -1.081  -4.323  -1.996  1.00  0.00    -0.445 OA
BRANCH  29  30
ATOM     30  C   UNL     1      -0.603  -5.199  -1.087  1.00  0.00     0.404 C 
ATOM     31  N   UNL     1      -0.019  -6.240  -1.720  1.00  0.00    -0.335 N 
ATOM     32  O   UNL     1      -0.662  -5.101   0.125  1.00  0.00    -0.225 OA
ATOM     33  H   UNL     1      -0.037  -6.300  -2.725  1.00  0.00     0.163 HD
ATOM     34  H   UNL     1       0.356  -6.995  -1.164  1.00  0.00     0.163 HD
ENDBRANCH  29  30
ENDBRANCH  28  29
ENDBRANCH  11  28
ENDBRANCH   1   3
BRANCH   1  35
ATOM     35  O   UNL     1      -2.794  -0.342   0.886  1.00  0.00    -0.423 OA
BRANCH  35  36
ATOM     36  C   UNL     1      -3.877  -0.473   1.800  1.00  0.00     0.474 C 
BRANCH  36  37
ATOM     37  O   UNL     1      -4.851   0.554   1.582  1.00  0.00    -0.427 OA
BRANCH  37  38
ATOM     38  C   UNL     1      -5.593   0.387   0.453  1.00  0.00     0.314 C 
ATOM     39  O   UNL     1      -5.461  -0.540  -0.335  1.00  0.00    -0.252 OA
BRANCH  38  40
ATOM     40  C   UNL     1      -6.588   1.538   0.276  1.00  0.00     0.060 C 
ATOM     41  C   UNL     1      -5.810   2.807  -0.092  1.00  0.00     0.023 C 
ATOM     42  C   UNL     1      -7.389   1.757   1.566  1.00  0.00     0.023 C 
ATOM     43  C   UNL     1      -7.565   1.193  -0.860  1.00  0.00     0.023 C 
ENDBRANCH  38  40
ENDBRANCH  37  38
ENDBRANCH  36  37
ENDBRANCH  35  36
ENDBRANCH   1  35
TORSDOF 14
