REMARK SMILES CO/N=C(\C(=O)N[C@@H]1C(=O)N2C(C(=O)[O-])=C(C[n+]3ccn4ncccc43)CS[C@H]12)c1nsc(N)n1
REMARK SMILES IDX 5 1 6 2 7 3 4 5 3 6 2 7 1 8 30 9 31 10 35 11 32 12 33 13
REMARK SMILES IDX 34 14 8 17 29 18 9 19 28 20 11 21 10 22 27 23 12 24 16 25
REMARK SMILES IDX 13 26 14 27 15 28 17 29 18 30 26 31 19 32 25 33 21 34 20 35
REMARK SMILES IDX 24 36 22 37 23 38
REMARK H PARENT 7 4 34 15 34 16
ROOT
ATOM      1  C   UNL     1      -3.371  -1.034  -1.273  1.00  0.00     0.278 C 
ATOM      2  O   UNL     1      -3.010  -1.305  -2.411  1.00  0.00    -0.267 OA
ATOM      3  N   UNL     1      -2.620  -1.264  -0.137  1.00  0.00    -0.336 N 
ATOM      4  H   UNL     1      -3.082  -1.163   0.764  1.00  0.00     0.164 HD
ENDROOT
BRANCH   1   5
ATOM      5  C   UNL     1      -4.740  -0.421  -1.012  1.00  0.00     0.212 C 
ATOM      6  N   UNL     1      -5.681  -1.070  -0.375  1.00  0.00    -0.077 NA
BRANCH   6   7
ATOM      7  O   UNL     1      -5.274  -2.366  -0.020  1.00  0.00    -0.398 OA
ATOM      8  C   UNL     1      -6.345  -3.007   0.663  1.00  0.00     0.315 C 
ENDBRANCH   6   7
BRANCH   5   9
ATOM      9  C   UNL     1      -5.015   0.948  -1.455  1.00  0.00     0.202 A 
ATOM     10  N   UNL     1      -4.047   1.708  -1.992  1.00  0.00    -0.167 NA
ATOM     11  N   UNL     1      -6.290   1.524  -1.295  1.00  0.00    -0.197 NA
ATOM     12  S   UNL     1      -4.730   3.177  -2.376  1.00  0.00     0.004 S 
ATOM     13  C   UNL     1      -6.281   2.741  -1.774  1.00  0.00     0.200 A 
BRANCH  13  14
ATOM     14  N   UNL     1      -7.348   3.559  -1.777  1.00  0.00    -0.374 N 
ATOM     15  H   UNL     1      -7.184   4.557  -1.806  1.00  0.00     0.159 HD
ATOM     16  H   UNL     1      -8.095   3.289  -1.146  1.00  0.00     0.159 HD
ENDBRANCH  13  14
ENDBRANCH   5   9
ENDBRANCH   1   5
BRANCH   3  17
ATOM     17  C   UNL     1      -1.292  -1.924  -0.215  1.00  0.00     0.206 C 
ATOM     18  C   UNL     1      -0.047  -1.045  -0.532  1.00  0.00     0.181 C 
ATOM     19  C   UNL     1      -0.588  -2.179   1.157  1.00  0.00     0.253 C 
ATOM     20  S   UNL     1      -0.251   0.754  -0.693  1.00  0.00    -0.129 SA
ATOM     21  N   UNL     1       0.392  -1.316   0.815  1.00  0.00    -0.293 N 
ATOM     22  O   UNL     1      -0.858  -2.803   2.156  1.00  0.00    -0.272 OA
ATOM     23  C   UNL     1       1.492   1.095  -0.315  1.00  0.00     0.109 C 
ATOM     24  C   UNL     1       1.441  -0.715   1.440  1.00  0.00     0.072 C 
ATOM     25  C   UNL     1       2.014   0.401   0.923  1.00  0.00     0.007 C 
BRANCH  24  26
ATOM     26  C   UNL     1       2.006  -1.302   2.764  1.00  0.00     0.088 C 
ATOM     27  O   UNL     1       2.701  -2.347   2.605  1.00  0.00    -0.543 OA
ATOM     28  O   UNL     1       1.884  -0.551   3.769  1.00  0.00    -0.543 OA
ENDBRANCH  24  26
BRANCH  25  29
ATOM     29  C   UNL     1       3.176   1.098   1.600  1.00  0.00     0.277 C 
BRANCH  29  30
ATOM     30  N   UNL     1       4.433   0.489   1.163  1.00  0.00    -0.225 N 
ATOM     31  C   UNL     1       5.160   0.824   0.095  1.00  0.00     0.307 A 
ATOM     32  C   UNL     1       5.075  -0.566   1.818  1.00  0.00     0.246 A 
ATOM     33  C   UNL     1       4.991   1.946  -0.952  1.00  0.00     0.103 C 
ATOM     34  N   UNL     1       6.206  -0.014   0.019  1.00  0.00    -0.101 N 
ATOM     35  C   UNL     1       6.162  -0.908   1.065  1.00  0.00     0.276 A 
ATOM     36  C   UNL     1       5.928   2.004  -1.903  1.00  0.00     0.033 C 
ATOM     37  N   UNL     1       7.204   0.016  -0.980  1.00  0.00    -0.086 NA
ATOM     38  C   UNL     1       7.008   0.979  -1.835  1.00  0.00     0.159 C 
ENDBRANCH  29  30
ENDBRANCH  25  29
ENDBRANCH   3  17
TORSDOF 8
