REMARK SMILES O=C(Cn1cnnn1)N[C@@H]1C(=O)N2C(C(=O)O)=C(CSc3nncs3)CS[C@H]12
REMARK SMILES IDX 14 1 18 2 26 3 27 4 28 5 10 6 11 7 12 8 13 9 15 10 16 11
REMARK SMILES IDX 17 12 19 14 20 15 21 16 22 17 25 18 23 19 24 20 9 21 2 22
REMARK SMILES IDX 1 23 3 25 4 26 5 27 8 28 6 29 7 30
REMARK H PARENT 17 13 9 24
ROOT
ATOM      1  C   UNL     1       1.381  -0.578  -0.640  1.00  0.00     0.132 C 
ATOM      2  C   UNL     1       1.981   0.356   0.136  1.00  0.00    -0.019 C 
ATOM      3  C   UNL     1       1.232   1.521   0.762  1.00  0.00     0.106 C 
ATOM      4  S   UNL     1      -0.561   1.231   0.936  1.00  0.00    -0.129 SA
ATOM      5  C   UNL     1      -0.747   0.702  -0.788  1.00  0.00     0.181 C 
ATOM      6  C   UNL     1      -1.976  -0.195  -1.131  1.00  0.00     0.205 C 
ATOM      7  C   UNL     1      -0.899  -1.309  -1.393  1.00  0.00     0.253 C 
ATOM      8  O   UNL     1      -0.884  -2.477  -1.703  1.00  0.00    -0.272 OA
ATOM      9  N   UNL     1       0.072  -0.465  -0.988  1.00  0.00    -0.289 N 
ENDROOT
BRANCH   1  10
ATOM     10  C   UNL     1       2.122  -1.765  -1.154  1.00  0.00     0.352 C 
ATOM     11  O   UNL     1       2.794  -2.541  -0.502  1.00  0.00    -0.245 OA
BRANCH  10  12
ATOM     12  O   UNL     1       1.997  -1.866  -2.490  1.00  0.00    -0.477 OA
ATOM     13  H   UNL     1       2.445  -2.707  -2.715  1.00  0.00     0.297 HD
ENDBRANCH  10  12
ENDBRANCH   1  10
BRANCH   2  14
ATOM     14  C   UNL     1       3.453   0.326   0.498  1.00  0.00     0.111 C 
BRANCH  14  15
ATOM     15  S   UNL     1       4.381   1.298  -0.729  1.00  0.00    -0.089 SA
BRANCH  15  16
ATOM     16  C   UNL     1       6.004   1.063  -0.124  1.00  0.00     0.174 A 
ATOM     17  N   UNL     1       6.260   0.851   1.149  1.00  0.00    -0.132 NA
ATOM     18  S   UNL     1       7.393   1.094  -1.132  1.00  0.00    -0.094 S 
ATOM     19  N   UNL     1       7.612   0.693   1.388  1.00  0.00    -0.146 NA
ATOM     20  C   UNL     1       8.316   0.790   0.281  1.00  0.00     0.203 A 
ENDBRANCH  15  16
ENDBRANCH  14  15
ENDBRANCH   2  14
BRANCH   6  21
ATOM     21  N   UNL     1      -2.934  -0.483  -0.022  1.00  0.00    -0.340 N 
ATOM     22  C   UNL     1      -4.141  -1.100  -0.258  1.00  0.00     0.242 C 
ATOM     23  O   UNL     1      -4.530  -1.393  -1.386  1.00  0.00    -0.273 OA
ATOM     24  H   UNL     1      -2.686  -0.197   0.925  1.00  0.00     0.164 HD
BRANCH  22  25
ATOM     25  C   UNL     1      -4.983  -1.363   0.963  1.00  0.00     0.247 C 
BRANCH  25  26
ATOM     26  N   UNL     1      -5.865  -0.255   1.200  1.00  0.00    -0.223 N 
ATOM     27  C   UNL     1      -6.971   0.118   0.508  1.00  0.00     0.246 A 
ATOM     28  N   UNL     1      -5.653   0.593   2.219  1.00  0.00    -0.045 NA
ATOM     29  N   UNL     1      -7.470   1.192   1.078  1.00  0.00    -0.117 NA
ATOM     30  N   UNL     1      -6.639   1.477   2.138  1.00  0.00    -0.024 NA
ENDBRANCH  25  26
ENDBRANCH  22  25
ENDBRANCH   6  21
TORSDOF 8
