REMARK SMILES CCCCCCCCCCCCCCCC[N+](C)(C)Cc1ccccc1
REMARK SMILES IDX 10 1 9 2 8 3 7 4 6 5 5 6 4 7 3 8 2 9 1 10 11 11 12 12 13 13
REMARK SMILES IDX 14 14 15 15 16 16 17 17 18 18 19 19 20 20 21 21 22 22 26 23
REMARK SMILES IDX 23 24 25 25 24 26
REMARK H PARENT
ROOT
ATOM      1  C   UNL     1       1.453   1.890   0.460  1.00  0.00     0.000 C 
ENDROOT
BRANCH   1   2
ATOM      2  C   UNL     1       2.461   1.760   1.605  1.00  0.00     0.000 C 
BRANCH   2   3
ATOM      3  C   UNL     1       3.797   2.455   1.323  1.00  0.00    -0.000 C 
BRANCH   3   4
ATOM      4  C   UNL     1       4.585   1.934   0.117  1.00  0.00    -0.000 C 
BRANCH   4   5
ATOM      5  C   UNL     1       4.936   0.448   0.213  1.00  0.00    -0.000 C 
BRANCH   5   6
ATOM      6  C   UNL     1       5.813   0.007  -0.963  1.00  0.00    -0.000 C 
BRANCH   6   7
ATOM      7  C   UNL     1       6.184  -1.471  -0.852  1.00  0.00    -0.000 C 
BRANCH   7   8
ATOM      8  C   UNL     1       6.923  -2.030  -2.074  1.00  0.00    -0.000 C 
BRANCH   8   9
ATOM      9  C   UNL     1       8.287  -1.389  -2.345  1.00  0.00    -0.003 C 
ATOM     10  C   UNL     1       8.234  -0.294  -3.400  1.00  0.00     0.004 C 
ENDBRANCH   8   9
ENDBRANCH   7   8
ENDBRANCH   6   7
ENDBRANCH   5   6
ENDBRANCH   4   5
ENDBRANCH   3   4
ENDBRANCH   2   3
ENDBRANCH   1   2
BRANCH   1  11
ATOM     11  C   UNL     1       0.140   1.144   0.721  1.00  0.00     0.000 C 
BRANCH  11  12
ATOM     12  C   UNL     1      -0.667   1.717   1.889  1.00  0.00     0.000 C 
BRANCH  12  13
ATOM     13  C   UNL     1      -2.070   1.109   2.004  1.00  0.00     0.000 C 
BRANCH  13  14
ATOM     14  C   UNL     1      -2.052  -0.379   2.359  1.00  0.00     0.006 C 
BRANCH  14  15
ATOM     15  C   UNL     1      -3.440  -0.964   2.623  1.00  0.00     0.061 C 
BRANCH  15  16
ATOM     16  C   UNL     1      -4.515  -0.833   1.535  1.00  0.00     0.263 C 
BRANCH  16  17
ATOM     17  N   UNL     1      -4.312  -1.652   0.246  1.00  0.00    -0.325 N 
ATOM     18  C   UNL     1      -3.819  -3.065   0.543  1.00  0.00     0.334 C 
ATOM     19  C   UNL     1      -3.337  -0.977  -0.710  1.00  0.00     0.334 C 
BRANCH  17  20
ATOM     20  C   UNL     1      -5.691  -1.805  -0.474  1.00  0.00     0.300 C 
BRANCH  20  21
ATOM     21  C   UNL     1      -6.392  -0.531  -0.880  1.00  0.00     0.006 A 
ATOM     22  C   UNL     1      -7.313   0.086  -0.017  1.00  0.00     0.009 A 
ATOM     23  C   UNL     1      -6.149   0.055  -2.133  1.00  0.00     0.009 A 
ATOM     24  C   UNL     1      -7.955   1.269  -0.388  1.00  0.00     0.001 A 
ATOM     25  C   UNL     1      -6.793   1.238  -2.501  1.00  0.00     0.001 A 
ATOM     26  C   UNL     1      -7.691   1.846  -1.628  1.00  0.00     0.000 A 
ENDBRANCH  20  21
ENDBRANCH  17  20
ENDBRANCH  16  17
ENDBRANCH  15  16
ENDBRANCH  14  15
ENDBRANCH  13  14
ENDBRANCH  12  13
ENDBRANCH  11  12
ENDBRANCH   1  11
TORSDOF 17
