REMARK SMILES Cc1ccc2c(Cl)cc(Cl)c(O)c2n1
REMARK SMILES IDX 1 1 2 2 14 3 13 4 11 5 9 6 10 7 8 8 6 9 7 10 5 11 4 12 3 13
REMARK SMILES IDX 12 14
REMARK H PARENT 12 15
ROOT
ATOM      1  C   UNL     1      -3.137   1.000  -0.715  1.00  0.00     0.067 C 
ATOM      2  C   UNL     1      -1.876   0.303  -0.299  1.00  0.00     0.038 A 
ATOM      3  N   UNL     1      -0.710   0.965  -0.485  1.00  0.00    -0.249 NA
ATOM      4  C   UNL     1       0.443   0.363  -0.120  1.00  0.00     0.115 A 
ATOM      5  C   UNL     1       1.630   1.063  -0.320  1.00  0.00     0.160 A 
ATOM      6  C   UNL     1       2.870   0.527   0.024  1.00  0.00     0.086 A 
ATOM      7  Cl  UNL     1       4.335   1.401  -0.229  1.00  0.00    -0.080 Cl
ATOM      8  C   UNL     1       2.938  -0.742   0.585  1.00  0.00     0.045 A 
ATOM      9  C   UNL     1       1.761  -1.463   0.796  1.00  0.00     0.052 A 
ATOM     10  Cl  UNL     1       1.919  -3.038   1.499  1.00  0.00    -0.084 Cl
ATOM     11  C   UNL     1       0.496  -0.924   0.448  1.00  0.00     0.023 A 
ATOM     12  C   UNL     1      -0.739  -1.582   0.626  1.00  0.00     0.014 A 
ATOM     13  C   UNL     1      -1.930  -0.967   0.252  1.00  0.00     0.024 A 
ENDROOT
BRANCH   5  14
ATOM     14  O   UNL     1       1.548   2.321  -0.878  1.00  0.00    -0.504 OA
ATOM     15  H   UNL     1       0.587   2.461  -1.024  1.00  0.00     0.293 HD
ENDBRANCH   5  14
TORSDOF 1
