REMARK SMILES O=C1NC(CCCl)Oc2ccccc21
REMARK SMILES IDX 5 1 6 2 7 3 4 4 3 5 8 6 2 7 9 8 1 9 14 10 10 11 13 12 11 13
REMARK SMILES IDX 12 14
REMARK H PARENT 3 15
ROOT
ATOM      1  C   UNL     1      -2.536  -0.809  -0.022  1.00  0.00     0.084 C 
ENDROOT
BRANCH   1   2
ATOM      2  C   UNL     1      -3.703   0.146   0.167  1.00  0.00     0.115 C 
ATOM      3  Cl  UNL     1      -5.246  -0.738   0.096  1.00  0.00    -0.126 Cl
ENDBRANCH   1   2
BRANCH   1   4
ATOM      4  C   UNL     1      -1.185  -0.103   0.101  1.00  0.00     0.272 C 
ATOM      5  N   UNL     1      -0.928   0.784  -1.004  1.00  0.00    -0.317 N 
ATOM      6  O   UNL     1      -0.179  -1.126   0.165  1.00  0.00    -0.470 OA
ATOM      7  C   UNL     1       0.320   1.334  -1.138  1.00  0.00     0.257 C 
ATOM      8  C   UNL     1       1.096  -0.630   0.121  1.00  0.00     0.135 A 
ATOM      9  O   UNL     1       0.505   2.372  -1.757  1.00  0.00    -0.269 OA
ATOM     10  C   UNL     1       1.409   0.583  -0.491  1.00  0.00     0.082 A 
ATOM     11  C   UNL     1       2.109  -1.406   0.679  1.00  0.00     0.047 A 
ATOM     12  C   UNL     1       2.726   1.045  -0.526  1.00  0.00     0.018 A 
ATOM     13  C   UNL     1       3.429  -0.949   0.650  1.00  0.00     0.004 A 
ATOM     14  C   UNL     1       3.737   0.276   0.053  1.00  0.00     0.001 A 
ATOM     15  H   UNL     1      -1.653   1.404  -1.341  1.00  0.00     0.167 HD
ENDBRANCH   1   4
TORSDOF 2
