REMARK SMILES CC(=O)O[C@]1(C(C)=O)CC[C@H]2[C@@H]3C=C(Cl)C4=CC(=O)CC[C@]4(C)[C@H]3CC[C@@]21C
REMARK SMILES IDX 5 1 9 2 10 3 11 4 12 5 13 6 14 7 15 8 16 9 17 10 18 11 19 12
REMARK SMILES IDX 20 13 21 14 22 15 23 16 24 17 25 18 26 19 27 20 28 21 4 22
REMARK SMILES IDX 2 23 3 24 1 25 6 26 8 27 7 28
REMARK H PARENT
ROOT
ATOM      1  C   UNL     1       2.903   0.043   0.048  1.00  0.00     0.175 C 
ATOM      2  C   UNL     1       3.028   1.574  -0.201  1.00  0.00     0.058 C 
ATOM      3  C   UNL     1       1.593   2.133  -0.312  1.00  0.00     0.009 C 
ATOM      4  C   UNL     1       0.692   0.958   0.049  1.00  0.00     0.007 C 
ATOM      5  C   UNL     1      -0.778   0.981  -0.394  1.00  0.00     0.021 C 
ATOM      6  C   UNL     1      -1.519   2.213   0.044  1.00  0.00    -0.002 C 
ATOM      7  C   UNL     1      -2.788   2.211   0.483  1.00  0.00     0.041 C 
ATOM      8  Cl  UNL     1      -3.477   3.753   0.903  1.00  0.00    -0.084 Cl
ATOM      9  C   UNL     1      -3.606   0.994   0.562  1.00  0.00    -0.020 C 
ATOM     10  C   UNL     1      -4.797   0.978   1.193  1.00  0.00     0.053 C 
ATOM     11  C   UNL     1      -5.647  -0.232   1.272  1.00  0.00     0.156 C 
ATOM     12  O   UNL     1      -6.742  -0.161   1.827  1.00  0.00    -0.295 OA
ATOM     13  C   UNL     1      -5.168  -1.499   0.619  1.00  0.00     0.081 C 
ATOM     14  C   UNL     1      -3.648  -1.541   0.557  1.00  0.00     0.020 C 
ATOM     15  C   UNL     1      -3.015  -0.277  -0.090  1.00  0.00    -0.002 C 
ATOM     16  C   UNL     1      -3.351  -0.266  -1.601  1.00  0.00     0.017 C 
ATOM     17  C   UNL     1      -1.466  -0.299   0.164  1.00  0.00     0.007 C 
ATOM     18  C   UNL     1      -0.726  -1.575  -0.307  1.00  0.00     0.006 C 
ATOM     19  C   UNL     1       0.779  -1.539   0.025  1.00  0.00     0.012 C 
ATOM     20  C   UNL     1       1.466  -0.266  -0.510  1.00  0.00     0.018 C 
ATOM     21  C   UNL     1       1.488  -0.321  -2.065  1.00  0.00     0.016 C 
ENDROOT
BRANCH   1  22
ATOM     22  O   UNL     1       2.877  -0.208   1.479  1.00  0.00    -0.451 OA
BRANCH  22  23
ATOM     23  C   UNL     1       4.044  -0.071   2.166  1.00  0.00     0.303 C 
ATOM     24  O   UNL     1       5.098   0.329   1.693  1.00  0.00    -0.253 OA
ATOM     25  C   UNL     1       3.845  -0.457   3.598  1.00  0.00     0.139 C 
ENDBRANCH  22  23
ENDBRANCH   1  22
BRANCH   1  26
ATOM     26  C   UNL     1       3.962  -0.883  -0.603  1.00  0.00     0.173 C 
ATOM     27  O   UNL     1       3.953  -2.100  -0.390  1.00  0.00    -0.295 OA
ATOM     28  C   UNL     1       5.000  -0.285  -1.516  1.00  0.00     0.092 C 
ENDBRANCH   1  26
TORSDOF 3
