REMARK SMILES Nc1ncnc(Nc2ccc(Cl)cc2)n1
REMARK SMILES IDX 2 1 15 2 6 3 5 4 4 5 3 6 1 7 7 10 8 12 9 13 14 14 10 15
REMARK SMILES IDX 13 16 11 17 12 18
REMARK H PARENT 1 8 1 9 7 11
ROOT
ATOM      1  C   UNL     1      -3.003   0.448  -0.489  1.00  0.00     0.224 A 
ATOM      2  N   UNL     1      -1.701   0.308  -0.299  1.00  0.00    -0.177 NA
ATOM      3  C   UNL     1      -1.303  -0.855   0.207  1.00  0.00     0.231 A 
ATOM      4  N   UNL     1      -2.139  -1.838   0.535  1.00  0.00    -0.201 NA
ATOM      5  C   UNL     1      -3.423  -1.580   0.312  1.00  0.00     0.230 A 
ATOM      6  N   UNL     1      -3.918  -0.457  -0.188  1.00  0.00    -0.201 NA
ENDROOT
BRANCH   1   7
ATOM      7  N   UNL     1      -3.447   1.650  -1.004  1.00  0.00    -0.368 N 
ATOM      8  H   UNL     1      -4.407   1.813  -0.738  1.00  0.00     0.159 HD
ATOM      9  H   UNL     1      -2.780   2.383  -0.809  1.00  0.00     0.159 HD
ENDBRANCH   1   7
BRANCH   3  10
ATOM     10  N   UNL     1       0.042  -1.127   0.455  1.00  0.00    -0.324 N 
ATOM     11  H   UNL     1       0.122  -2.058   0.840  1.00  0.00     0.170 HD
BRANCH  10  12
ATOM     12  C   UNL     1       1.237  -0.451   0.187  1.00  0.00     0.041 A 
ATOM     13  C   UNL     1       1.309   0.762  -0.506  1.00  0.00     0.027 A 
ATOM     14  C   UNL     1       2.437  -0.996   0.676  1.00  0.00     0.027 A 
ATOM     15  C   UNL     1       2.536   1.405  -0.720  1.00  0.00     0.022 A 
ATOM     16  C   UNL     1       3.666  -0.360   0.467  1.00  0.00     0.022 A 
ATOM     17  C   UNL     1       3.709   0.840  -0.233  1.00  0.00     0.041 A 
ATOM     18  Cl  UNL     1       5.215   1.629  -0.493  1.00  0.00    -0.084 Cl
ENDBRANCH  10  12
ENDBRANCH   3  10
TORSDOF 3
