REMARK SMILES NS(=O)(=O)c1cc(C2(O)NC(=O)c3ccccc32)ccc1Cl
REMARK SMILES IDX 5 1 6 2 7 3 19 4 20 5 21 6 22 7 2 8 3 9 4 10 1 11 8 14 10 15
REMARK SMILES IDX 18 16 11 17 17 18 13 19 12 20 16 21 14 22 15 23 9 25
REMARK H PARENT 1 12 1 13 10 24 9 26
ROOT
ATOM      1  C   UNL     1       2.685  -0.912   0.066  1.00  0.00     0.101 A 
ATOM      2  C   UNL     1       1.701   0.092   0.084  1.00  0.00     0.032 A 
ATOM      3  C   UNL     1       0.451  -0.101  -0.534  1.00  0.00     0.010 A 
ATOM      4  C   UNL     1       0.212  -1.338  -1.159  1.00  0.00     0.011 A 
ATOM      5  C   UNL     1       1.191  -2.336  -1.178  1.00  0.00     0.022 A 
ATOM      6  C   UNL     1       2.431  -2.129  -0.567  1.00  0.00     0.061 A 
ATOM      7  Cl  UNL     1       3.568  -3.424  -0.646  1.00  0.00    -0.083 Cl
ENDROOT
BRANCH   1   8
ATOM      8  S   UNL     1       4.244  -0.644   0.844  1.00  0.00     0.239 S 
ATOM      9  O   UNL     1       4.339  -1.502   2.002  1.00  0.00    -0.207 OA
ATOM     10  O   UNL     1       5.264  -0.559  -0.173  1.00  0.00    -0.207 OA
BRANCH   8  11
ATOM     11  N   UNL     1       4.154   0.913   1.482  1.00  0.00    -0.225 NA
ATOM     12  H   UNL     1       4.258   0.860   2.497  1.00  0.00     0.137 HD
ATOM     13  H   UNL     1       4.865   1.495   1.035  1.00  0.00     0.137 HD
ENDBRANCH   8  11
ENDBRANCH   1   8
BRANCH   3  14
ATOM     14  C   UNL     1      -0.620   0.979  -0.494  1.00  0.00     0.192 C 
ATOM     15  N   UNL     1      -1.264   1.168  -1.759  1.00  0.00    -0.316 N 
ATOM     16  C   UNL     1      -1.768   0.674   0.424  1.00  0.00     0.022 A 
ATOM     17  C   UNL     1      -2.613   0.895  -1.716  1.00  0.00     0.254 C 
ATOM     18  C   UNL     1      -1.797   0.460   1.793  1.00  0.00     0.010 A 
ATOM     19  C   UNL     1      -2.950   0.621  -0.315  1.00  0.00     0.048 A 
ATOM     20  O   UNL     1      -3.379   0.866  -2.656  1.00  0.00    -0.269 OA
ATOM     21  C   UNL     1      -3.031   0.183   2.392  1.00  0.00     0.001 A 
ATOM     22  C   UNL     1      -4.180   0.346   0.250  1.00  0.00     0.014 A 
ATOM     23  C   UNL     1      -4.212   0.124   1.628  1.00  0.00     0.001 A 
ATOM     24  H   UNL     1      -0.771   1.228  -2.639  1.00  0.00     0.167 HD
BRANCH  14  25
ATOM     25  O   UNL     1      -0.080   2.238  -0.168  1.00  0.00    -0.363 OA
ATOM     26  H   UNL     1      -0.619   2.859  -0.684  1.00  0.00     0.214 HD
ENDBRANCH  14  25
ENDBRANCH   3  14
TORSDOF 4
