REMARK SMILES CN(C)CC/C=C1/c2ccccc2Sc2ccc(Cl)cc21
REMARK SMILES IDX 4 1 2 2 1 3 3 4 5 5 6 6 7 7 8 8 21 9 9 10 13 11 15 12 20 13
REMARK SMILES IDX 10 14 12 15 14 16 16 17 18 18 11 19 17 20 19 21
REMARK H PARENT
ROOT
ATOM      1  C   UNL     1       2.505   0.853   0.196  1.00  0.00     0.088 C 
ENDROOT
BRANCH   1   2
ATOM      2  N   UNL     1       3.826   0.351   0.617  1.00  0.00    -0.309 NA
ATOM      3  C   UNL     1       4.883   1.030  -0.139  1.00  0.00     0.104 C 
ATOM      4  C   UNL     1       3.946  -1.098   0.430  1.00  0.00     0.104 C 
ENDBRANCH   1   2
BRANCH   1   5
ATOM      5  C   UNL     1       1.360   0.414   1.126  1.00  0.00     0.043 C 
BRANCH   5   6
ATOM      6  C   UNL     1       0.039   1.005   0.693  1.00  0.00    -0.016 C 
ATOM      7  C   UNL     1      -1.051   0.385   0.183  1.00  0.00    -0.013 C 
ATOM      8  C   UNL     1      -2.294   1.195   0.037  1.00  0.00    -0.004 A 
ATOM      9  C   UNL     1      -1.109  -1.082  -0.050  1.00  0.00    -0.003 A 
ATOM     10  C   UNL     1      -2.289   2.466  -0.561  1.00  0.00     0.010 A 
ATOM     11  C   UNL     1      -3.516   0.650   0.478  1.00  0.00     0.020 A 
ATOM     12  C   UNL     1      -2.238  -1.798   0.397  1.00  0.00     0.020 A 
ATOM     13  C   UNL     1      -0.115  -1.761  -0.770  1.00  0.00     0.030 A 
ATOM     14  C   UNL     1      -3.473   3.197  -0.685  1.00  0.00     0.001 A 
ATOM     15  C   UNL     1      -4.696   1.395   0.356  1.00  0.00     0.016 A 
ATOM     16  S   UNL     1      -3.616  -0.986   1.207  1.00  0.00    -0.089 SA
ATOM     17  C   UNL     1      -2.314  -3.183   0.195  1.00  0.00     0.017 A 
ATOM     18  C   UNL     1      -0.204  -3.138  -0.968  1.00  0.00     0.041 A 
ATOM     19  C   UNL     1      -4.673   2.665  -0.221  1.00  0.00     0.001 A 
ATOM     20  C   UNL     1      -1.294  -3.854  -0.481  1.00  0.00     0.022 A 
ATOM     21  Cl  UNL     1       1.044  -3.957  -1.824  1.00  0.00    -0.084 Cl
ENDBRANCH   5   6
ENDBRANCH   1   5
TORSDOF 3
