REMARK SMILES Cc1nc2ccccc2n1Cc1ccc(Cl)cc1
REMARK SMILES IDX 11 1 10 2 2 3 3 4 4 5 9 6 5 7 8 8 6 9 7 10 1 11 12 12 13 13
REMARK SMILES IDX 18 14 14 15 17 16 15 17 16 18
REMARK H PARENT
ROOT
ATOM      1  C   UNL     1       0.328  -0.961  -1.032  1.00  0.00     0.159 C 
ENDROOT
BRANCH   1   2
ATOM      2  N   UNL     1      -0.796  -0.603  -0.178  1.00  0.00    -0.324 N 
ATOM      3  C   UNL     1      -1.127  -1.195   1.024  1.00  0.00     0.107 A 
ATOM      4  N   UNL     1      -2.229  -0.667   1.517  1.00  0.00    -0.234 NA
ATOM      5  C   UNL     1      -2.624   0.288   0.618  1.00  0.00     0.089 A 
ATOM      6  C   UNL     1      -1.748   0.353  -0.462  1.00  0.00     0.068 A 
ATOM      7  C   UNL     1      -3.734   1.145   0.661  1.00  0.00     0.030 A 
ATOM      8  C   UNL     1      -1.930   1.249  -1.524  1.00  0.00     0.028 A 
ATOM      9  C   UNL     1      -3.933   2.047  -0.390  1.00  0.00     0.002 A 
ATOM     10  C   UNL     1      -3.043   2.096  -1.463  1.00  0.00     0.002 A 
ATOM     11  C   UNL     1      -0.335  -2.273   1.669  1.00  0.00     0.088 C 
ENDBRANCH   1   2
BRANCH   1  12
ATOM     12  C   UNL     1       1.653  -0.465  -0.499  1.00  0.00    -0.028 A 
ATOM     13  C   UNL     1       1.846   0.884  -0.159  1.00  0.00     0.007 A 
ATOM     14  C   UNL     1       2.734  -1.353  -0.378  1.00  0.00     0.007 A 
ATOM     15  C   UNL     1       3.084   1.328   0.312  1.00  0.00     0.021 A 
ATOM     16  C   UNL     1       3.972  -0.907   0.092  1.00  0.00     0.021 A 
ATOM     17  C   UNL     1       4.141   0.431   0.437  1.00  0.00     0.041 A 
ATOM     18  Cl  UNL     1       5.666   0.979   1.015  1.00  0.00    -0.084 Cl
ENDBRANCH   1  12
TORSDOF 2
