REMARK SMILES COc1cc(/C=C/C(=O)N2CCN(CC(=O)N3CCCC3)CC2)cc(OC)c1OC
REMARK SMILES IDX 6 1 7 2 5 3 3 4 4 5 28 6 25 7 24 8 2 9 1 10 29 11 30 12
REMARK SMILES IDX 26 13 27 14 8 15 9 16 10 17 11 18 23 19 12 20 22 21 13 22
REMARK SMILES IDX 14 23 15 24 16 25 17 26 18 27 21 28 19 29 20 30
REMARK H PARENT
ROOT
ATOM      1  C   UNL     1       2.581  -1.598  -0.822  1.00  0.00     0.014 C 
ATOM      2  C   UNL     1       1.662  -1.462   0.146  1.00  0.00     0.072 C 
ENDROOT
BRANCH   1   3
ATOM      3  C   UNL     1       3.906  -0.988  -0.718  1.00  0.00    -0.018 A 
ATOM      4  C   UNL     1       5.484   0.691  -1.483  1.00  0.00     0.165 A 
ATOM      5  C   UNL     1       4.234   0.077  -1.569  1.00  0.00     0.058 A 
ATOM      6  C   UNL     1       6.405   0.226  -0.528  1.00  0.00     0.203 A 
ATOM      7  C   UNL     1       6.104  -0.869   0.295  1.00  0.00     0.165 A 
ATOM      8  C   UNL     1       4.841  -1.458   0.213  1.00  0.00     0.058 A 
BRANCH   4   9
ATOM      9  O   UNL     1       5.892   1.746  -2.260  1.00  0.00    -0.493 OA
ATOM     10  C   UNL     1       5.064   2.110  -3.357  1.00  0.00     0.278 C 
ENDBRANCH   4   9
BRANCH   6  11
ATOM     11  O   UNL     1       7.654   0.802  -0.471  1.00  0.00    -0.490 OA
ATOM     12  C   UNL     1       7.687   1.796   0.552  1.00  0.00     0.278 C 
ENDBRANCH   6  11
BRANCH   7  13
ATOM     13  O   UNL     1       7.070  -1.277   1.180  1.00  0.00    -0.493 OA
ATOM     14  C   UNL     1       7.122  -2.681   1.411  1.00  0.00     0.278 C 
ENDBRANCH   7  13
ENDBRANCH   1   3
BRANCH   2  15
ATOM     15  C   UNL     1       0.333  -2.089  -0.049  1.00  0.00     0.246 C 
ATOM     16  O   UNL     1       0.240  -3.188  -0.589  1.00  0.00    -0.270 OA
ATOM     17  N   UNL     1      -0.759  -1.375   0.416  1.00  0.00    -0.337 N 
ATOM     18  C   UNL     1      -0.751   0.039   0.825  1.00  0.00     0.135 C 
ATOM     19  C   UNL     1      -2.081  -1.989   0.273  1.00  0.00     0.135 C 
ATOM     20  C   UNL     1      -1.991   0.793   0.302  1.00  0.00     0.106 C 
ATOM     21  C   UNL     1      -3.169  -1.230   1.050  1.00  0.00     0.106 C 
ATOM     22  N   UNL     1      -3.296   0.185   0.633  1.00  0.00    -0.291 NA
BRANCH  22  23
ATOM     23  C   UNL     1      -4.035   0.979   1.635  1.00  0.00     0.185 C 
BRANCH  23  24
ATOM     24  C   UNL     1      -5.463   0.447   1.838  1.00  0.00     0.236 C 
ATOM     25  O   UNL     1      -5.740  -0.261   2.808  1.00  0.00    -0.273 OA
ATOM     26  N   UNL     1      -6.411   0.790   0.897  1.00  0.00    -0.342 N 
ATOM     27  C   UNL     1      -7.789   0.350   1.018  1.00  0.00     0.119 C 
ATOM     28  C   UNL     1      -6.182   1.473  -0.371  1.00  0.00     0.119 C 
ATOM     29  C   UNL     1      -8.525   1.126  -0.064  1.00  0.00     0.023 C 
ATOM     30  C   UNL     1      -7.470   1.258  -1.157  1.00  0.00     0.023 C 
ENDBRANCH  23  24
ENDBRANCH  22  23
ENDBRANCH   2  15
TORSDOF 7
