REMARK SMILES CCn1nc(C(=O)O)c(=O)c2cc3c(cc21)OCO3
REMARK SMILES IDX 3 1 4 2 5 3 9 4 10 5 11 6 16 7 15 8 14 9 17 10 18 11 19 12
REMARK SMILES IDX 13 13 12 14 2 15 1 16 6 17 7 18 8 19
REMARK H PARENT 8 20
ROOT
ATOM      1  N   UNL     1      -1.066   0.980  -0.031  1.00  0.00    -0.264 N 
ATOM      2  N   UNL     1      -2.293   0.394  -0.194  1.00  0.00    -0.161 NA
ATOM      3  C   UNL     1      -2.382  -0.827  -0.637  1.00  0.00     0.216 C 
ATOM      4  C   UNL     1      -1.178  -1.642  -0.969  1.00  0.00     0.222 C 
ATOM      5  O   UNL     1      -1.310  -2.775  -1.408  1.00  0.00    -0.286 OA
ATOM      6  C   UNL     1       0.129  -1.030  -0.729  1.00  0.00     0.054 A 
ATOM      7  C   UNL     1       0.142   0.297  -0.245  1.00  0.00     0.075 A 
ATOM      8  C   UNL     1       1.402   0.877  -0.010  1.00  0.00     0.079 A 
ATOM      9  C   UNL     1       2.545   0.137  -0.259  1.00  0.00     0.167 A 
ATOM     10  O   UNL     1       3.822   0.569  -0.075  1.00  0.00    -0.454 OA
ATOM     11  C   UNL     1       4.567  -0.596  -0.490  1.00  0.00     0.468 C 
ATOM     12  O   UNL     1       3.726  -1.692  -0.905  1.00  0.00    -0.454 OA
ATOM     13  C   UNL     1       2.493  -1.150  -0.731  1.00  0.00     0.166 A 
ATOM     14  C   UNL     1       1.295  -1.771  -0.979  1.00  0.00     0.065 A 
ENDROOT
BRANCH   1  15
ATOM     15  C   UNL     1      -1.112   2.344   0.513  1.00  0.00     0.141 C 
ATOM     16  C   UNL     1      -1.037   2.328   2.032  1.00  0.00     0.029 C 
ENDBRANCH   1  15
BRANCH   3  17
ATOM     17  C   UNL     1      -3.769  -1.402  -0.803  1.00  0.00     0.360 C 
ATOM     18  O   UNL     1      -4.442  -1.295  -1.808  1.00  0.00    -0.244 OA
BRANCH  17  19
ATOM     19  O   UNL     1      -4.187  -2.028   0.304  1.00  0.00    -0.476 OA
ATOM     20  H   UNL     1      -5.086  -2.346   0.076  1.00  0.00     0.297 HD
ENDBRANCH  17  19
ENDBRANCH   3  17
TORSDOF 3
