REMARK SMILES CCNC(=O)/C=C/c1cccc(Br)c1
REMARK SMILES IDX 3 1 4 2 5 3 2 5 1 6 6 7 7 8 8 9 14 10 9 11 12 12 10 13 11 14
REMARK SMILES IDX 13 15
REMARK H PARENT 3 4
ROOT
ATOM      1  N   UNL     1      -2.690   0.219   0.688  1.00  0.00    -0.353 N 
ATOM      2  C   UNL     1      -1.788  -0.459  -0.096  1.00  0.00     0.243 C 
ATOM      3  O   UNL     1      -2.096  -1.242  -0.984  1.00  0.00    -0.270 OA
ATOM      4  H   UNL     1      -2.367   0.903   1.357  1.00  0.00     0.163 HD
ENDROOT
BRANCH   1   5
ATOM      5  C   UNL     1      -4.118   0.091   0.483  1.00  0.00     0.112 C 
ATOM      6  C   UNL     1      -4.615   1.028  -0.603  1.00  0.00     0.027 C 
ENDBRANCH   1   5
BRANCH   2   7
ATOM      7  C   UNL     1      -0.378  -0.137   0.239  1.00  0.00     0.072 C 
ATOM      8  C   UNL     1       0.616  -0.701  -0.463  1.00  0.00     0.014 C 
BRANCH   8   9
ATOM      9  C   UNL     1       2.042  -0.440  -0.225  1.00  0.00    -0.024 A 
ATOM     10  C   UNL     1       2.572  -0.296   1.064  1.00  0.00     0.023 A 
ATOM     11  C   UNL     1       2.910  -0.386  -1.324  1.00  0.00     0.008 A 
ATOM     12  C   UNL     1       3.939  -0.074   1.239  1.00  0.00     0.018 A 
ATOM     13  C   UNL     1       4.278  -0.164  -1.143  1.00  0.00     0.002 A 
ATOM     14  C   UNL     1       4.794  -0.004   0.141  1.00  0.00     0.016 A 
ATOM     15  Br  UNL     1       4.639   0.127   2.984  1.00  0.00    -0.051 Br
ENDBRANCH   8   9
ENDBRANCH   2   7
TORSDOF 3
