REMARK SMILES CN(C)CCCC1(c2ccc(F)cc2)OCc2cc(C#N)ccc21
REMARK SMILES IDX 5 1 4 2 2 3 1 4 3 5 6 6 7 7 15 8 24 9 16 10 17 11 23 12
REMARK SMILES IDX 18 13 22 14 19 15 20 16 21 17 8 18 9 19 14 20 10 21 13 22
REMARK SMILES IDX 11 23 12 24
REMARK H PARENT
ROOT
ATOM      1  C   UNL     1       1.857  -0.337  -0.696  1.00  0.00     0.019 C 
ENDROOT
BRANCH   1   2
ATOM      2  C   UNL     1       2.521  -0.141   0.675  1.00  0.00     0.084 C 
BRANCH   2   3
ATOM      3  N   UNL     1       3.844   0.504   0.671  1.00  0.00    -0.309 NA
ATOM      4  C   UNL     1       3.824   1.847   0.100  1.00  0.00     0.104 C 
ATOM      5  C   UNL     1       4.879  -0.318   0.053  1.00  0.00     0.104 C 
ENDBRANCH   2   3
ENDBRANCH   1   2
BRANCH   1   6
ATOM      6  C   UNL     1       0.589  -1.212  -0.677  1.00  0.00     0.047 C 
BRANCH   6   7
ATOM      7  C   UNL     1      -0.636  -0.696   0.115  1.00  0.00     0.119 C 
ATOM      8  O   UNL     1      -0.286  -0.615   1.530  1.00  0.00    -0.361 OA
ATOM      9  C   UNL     1      -1.021   0.729  -0.191  1.00  0.00    -0.006 A 
ATOM     10  C   UNL     1      -0.992   0.488   2.140  1.00  0.00     0.198 C 
ATOM     11  C   UNL     1      -1.235   1.410   1.004  1.00  0.00    -0.015 A 
ATOM     12  C   UNL     1      -1.153   1.386  -1.408  1.00  0.00     0.009 A 
ATOM     13  C   UNL     1      -1.617   2.742   1.025  1.00  0.00     0.026 A 
ATOM     14  C   UNL     1      -1.529   2.733  -1.407  1.00  0.00     0.020 A 
ATOM     15  C   UNL     1      -1.765   3.410  -0.196  1.00  0.00     0.052 A 
ATOM     16  C   UNL     1      -2.153   4.790  -0.214  1.00  0.00     0.099 C 
ATOM     17  N   UNL     1      -2.466   5.908  -0.231  1.00  0.00    -0.192 NA
BRANCH   7  18
ATOM     18  C   UNL     1      -1.780  -1.720  -0.013  1.00  0.00    -0.012 A 
ATOM     19  C   UNL     1      -2.784  -1.612  -0.993  1.00  0.00     0.010 A 
ATOM     20  C   UNL     1      -1.814  -2.844   0.841  1.00  0.00     0.010 A 
ATOM     21  C   UNL     1      -3.794  -2.574  -1.098  1.00  0.00     0.039 A 
ATOM     22  C   UNL     1      -2.822  -3.804   0.736  1.00  0.00     0.039 A 
ATOM     23  C   UNL     1      -3.805  -3.659  -0.232  1.00  0.00     0.123 A 
ATOM     24  F   UNL     1      -4.772  -4.578  -0.337  1.00  0.00    -0.207 F 
ENDBRANCH   7  18
ENDBRANCH   6   7
ENDBRANCH   1   6
TORSDOF 5
