REMARK SMILES CCC(=O)O[C@]1(C(=O)CO)CC[C@H]2[C@@H]3CCC4=CC(=O)CC[C@]4(C)[C@H]3CC[C@@]21C
REMARK SMILES IDX 6 1 11 2 12 3 13 4 28 5 27 6 26 7 25 8 14 9 15 10 16 11
REMARK SMILES IDX 17 12 18 13 19 14 20 15 21 16 22 17 23 18 24 19 29 20 5 21
REMARK SMILES IDX 3 22 4 23 2 24 1 25 7 26 8 27 9 28 10 29
REMARK H PARENT 10 30
ROOT
ATOM      1  C   UNL     1      -2.550  -0.642   0.537  1.00  0.00     0.178 C 
ATOM      2  C   UNL     1      -2.576  -0.003   1.964  1.00  0.00     0.058 C 
ATOM      3  C   UNL     1      -1.133   0.423   2.301  1.00  0.00     0.009 C 
ATOM      4  C   UNL     1      -0.362   0.221   1.004  1.00  0.00     0.003 C 
ATOM      5  C   UNL     1      -1.032  -1.042   0.389  1.00  0.00     0.018 C 
ATOM      6  C   UNL     1      -0.496  -1.206  -1.048  1.00  0.00     0.012 C 
ATOM      7  C   UNL     1       1.045  -1.247  -1.105  1.00  0.00     0.005 C 
ATOM      8  C   UNL     1       1.689  -0.026  -0.410  1.00  0.00     0.002 C 
ATOM      9  C   UNL     1       1.168   0.118   1.055  1.00  0.00    -0.003 C 
ATOM     10  C   UNL     1       1.857   1.268   1.817  1.00  0.00     0.008 C 
ATOM     11  C   UNL     1       2.719   2.173   0.942  1.00  0.00     0.032 C 
ATOM     12  C   UNL     1       3.672   1.430   0.031  1.00  0.00    -0.060 C 
ATOM     13  C   UNL     1       4.794   2.043  -0.389  1.00  0.00     0.047 C 
ATOM     14  C   UNL     1       5.689   1.429  -1.397  1.00  0.00     0.155 C 
ATOM     15  O   UNL     1       6.768   1.965  -1.644  1.00  0.00    -0.295 OA
ATOM     16  C   UNL     1       5.256   0.155  -2.081  1.00  0.00     0.081 C 
ATOM     17  C   UNL     1       3.760  -0.113  -1.927  1.00  0.00     0.019 C 
ATOM     18  C   UNL     1       3.252   0.044  -0.470  1.00  0.00    -0.008 C 
ATOM     19  C   UNL     1       3.906  -1.047   0.412  1.00  0.00     0.016 C 
ATOM     20  C   UNL     1      -0.726  -2.346   1.182  1.00  0.00     0.016 C 
ENDROOT
BRANCH   1  21
ATOM     21  O   UNL     1      -2.826   0.390  -0.442  1.00  0.00    -0.450 OA
BRANCH  21  22
ATOM     22  C   UNL     1      -4.079   0.920  -0.498  1.00  0.00     0.306 C 
ATOM     23  O   UNL     1      -5.028   0.524   0.159  1.00  0.00    -0.252 OA
BRANCH  22  24
ATOM     24  C   UNL     1      -4.107   2.040  -1.509  1.00  0.00     0.119 C 
ATOM     25  C   UNL     1      -5.476   2.692  -1.596  1.00  0.00     0.016 C 
ENDBRANCH  22  24
ENDBRANCH  21  22
ENDBRANCH   1  21
BRANCH   1  26
ATOM     26  C   UNL     1      -3.483  -1.876   0.422  1.00  0.00     0.202 C 
ATOM     27  O   UNL     1      -3.823  -2.552   1.400  1.00  0.00    -0.293 OA
BRANCH  26  28
ATOM     28  C   UNL     1      -3.940  -2.292  -0.972  1.00  0.00     0.236 C 
BRANCH  28  29
ATOM     29  O   UNL     1      -4.219  -3.685  -1.023  1.00  0.00    -0.388 OA
ATOM     30  H   UNL     1      -4.648  -3.901  -0.170  1.00  0.00     0.211 HD
ENDBRANCH  28  29
ENDBRANCH  26  28
ENDBRANCH   1  26
TORSDOF 6
