REMARK SMILES CCCCCCCCCCCCCCCC(=O)O[C@@H]1[C@@H](O)[C@@H](O)[C@@H]([C@H](NC(=O)[C@@H]2C[C@@H](CCC)CN2C)[C@H](C)Cl)O[C@@H]1SC
REMARK SMILES IDX 12 1 11 2 10 3 9 4 8 5 7 6 6 7 5 8 4 9 3 10 2 11 1 12 13 13
REMARK SMILES IDX 14 14 15 15 16 16 17 17 18 18 19 19 20 20 42 21 22 22 41 23
REMARK SMILES IDX 24 24 21 25 43 27 44 28 23 29 25 31 26 32 27 33 28 34 29 36
REMARK SMILES IDX 30 37 36 38 31 39 35 40 37 41 32 42 33 43 34 44 38 45 39 46
REMARK SMILES IDX 40 47
REMARK H PARENT 21 26 23 30 26 35
ROOT
ATOM      1  C   UNL     1       4.327   2.760   0.686  1.00  0.00     0.000 C 
ENDROOT
BRANCH   1   2
ATOM      2  C   UNL     1       5.136   1.991  -0.364  1.00  0.00     0.000 C 
BRANCH   2   3
ATOM      3  C   UNL     1       6.207   1.055   0.212  1.00  0.00     0.000 C 
BRANCH   3   4
ATOM      4  C   UNL     1       5.744  -0.403   0.299  1.00  0.00     0.000 C 
BRANCH   4   5
ATOM      5  C   UNL     1       6.822  -1.336   0.869  1.00  0.00     0.000 C 
BRANCH   5   6
ATOM      6  C   UNL     1       7.576  -2.163  -0.180  1.00  0.00    -0.000 C 
BRANCH   6   7
ATOM      7  C   UNL     1       8.427  -1.327  -1.138  1.00  0.00    -0.000 C 
BRANCH   7   8
ATOM      8  C   UNL     1       9.206  -2.180  -2.148  1.00  0.00    -0.000 C 
BRANCH   8   9
ATOM      9  C   UNL     1      10.355  -3.011  -1.566  1.00  0.00    -0.000 C 
BRANCH   9  10
ATOM     10  C   UNL     1      11.740  -2.364  -1.699  1.00  0.00    -0.000 C 
BRANCH  10  11
ATOM     11  C   UNL     1      11.973  -1.095  -0.881  1.00  0.00    -0.003 C 
ATOM     12  C   UNL     1      11.872  -1.315   0.621  1.00  0.00     0.004 C 
ENDBRANCH  10  11
ENDBRANCH   9  10
ENDBRANCH   8   9
ENDBRANCH   7   8
ENDBRANCH   6   7
ENDBRANCH   5   6
ENDBRANCH   4   5
ENDBRANCH   3   4
ENDBRANCH   2   3
ENDBRANCH   1   2
BRANCH   1  13
ATOM     13  C   UNL     1       3.396   1.888   1.530  1.00  0.00     0.001 C 
BRANCH  13  14
ATOM     14  C   UNL     1       2.520   2.752   2.447  1.00  0.00     0.012 C 
BRANCH  14  15
ATOM     15  C   UNL     1       1.551   1.917   3.285  1.00  0.00     0.123 C 
BRANCH  15  16
ATOM     16  C   UNL     1       0.472   1.233   2.480  1.00  0.00     0.306 C 
ATOM     17  O   UNL     1       0.117   0.077   2.657  1.00  0.00    -0.252 OA
BRANCH  16  18
ATOM     18  O   UNL     1      -0.113   2.092   1.606  1.00  0.00    -0.456 OA
BRANCH  18  19
ATOM     19  C   UNL     1      -1.102   1.516   0.725  1.00  0.00     0.247 C 
ATOM     20  C   UNL     1      -1.232   2.413  -0.504  1.00  0.00     0.190 C 
ATOM     21  C   UNL     1      -2.470   1.299   1.387  1.00  0.00     0.219 C 
ATOM     22  C   UNL     1      -2.543   2.232  -1.291  1.00  0.00     0.178 C 
ATOM     23  O   UNL     1      -3.286   0.547   0.483  1.00  0.00    -0.355 OA
ATOM     24  C   UNL     1      -3.507   1.104  -0.821  1.00  0.00     0.175 C 
BRANCH  20  25
ATOM     25  O   UNL     1      -0.094   2.248  -1.367  1.00  0.00    -0.386 OA
ATOM     26  H   UNL     1      -0.262   1.460  -1.926  1.00  0.00     0.211 HD
ENDBRANCH  20  25
BRANCH  21  27
ATOM     27  S   UNL     1      -3.363   2.793   1.980  1.00  0.00    -0.130 SA
ATOM     28  C   UNL     1      -2.422   3.149   3.481  1.00  0.00     0.088 C 
ENDBRANCH  21  27
BRANCH  22  29
ATOM     29  O   UNL     1      -2.292   2.209  -2.699  1.00  0.00    -0.387 OA
ATOM     30  H   UNL     1      -1.619   2.898  -2.876  1.00  0.00     0.211 HD
ENDBRANCH  22  29
BRANCH  24  31
ATOM     31  C   UNL     1      -3.765  -0.063  -1.828  1.00  0.00     0.131 C 
BRANCH  31  32
ATOM     32  N   UNL     1      -5.091  -0.668  -1.547  1.00  0.00    -0.348 N 
ATOM     33  C   UNL     1      -6.270  -0.079  -1.973  1.00  0.00     0.237 C 
ATOM     34  O   UNL     1      -6.306   0.877  -2.742  1.00  0.00    -0.273 OA
ATOM     35  H   UNL     1      -5.198  -1.187  -0.680  1.00  0.00     0.163 HD
BRANCH  33  36
ATOM     36  C   UNL     1      -7.519  -0.790  -1.439  1.00  0.00     0.146 C 
ATOM     37  C   UNL     1      -8.852  -0.129  -1.779  1.00  0.00     0.034 C 
ATOM     38  N   UNL     1      -7.521  -0.983   0.043  1.00  0.00    -0.295 NA
ATOM     39  C   UNL     1      -9.778  -0.467  -0.601  1.00  0.00     0.005 C 
ATOM     40  C   UNL     1      -8.926  -1.369   0.296  1.00  0.00     0.088 C 
ATOM     41  C   UNL     1      -7.198   0.244   0.789  1.00  0.00     0.106 C 
BRANCH  39  42
ATOM     42  C   UNL     1     -11.106  -1.083  -1.060  1.00  0.00     0.005 C 
BRANCH  42  43
ATOM     43  C   UNL     1     -12.163  -1.230   0.043  1.00  0.00    -0.003 C 
ATOM     44  C   UNL     1     -12.013  -2.486   0.890  1.00  0.00     0.004 C 
ENDBRANCH  42  43
ENDBRANCH  39  42
ENDBRANCH  33  36
ENDBRANCH  31  32
BRANCH  31  45
ATOM     45  C   UNL     1      -2.707  -1.202  -1.913  1.00  0.00     0.103 C 
ATOM     46  C   UNL     1      -2.521  -2.057  -0.661  1.00  0.00     0.027 C 
ATOM     47  Cl  UNL     1      -1.092  -0.631  -2.443  1.00  0.00    -0.121 Cl
ENDBRANCH  31  45
ENDBRANCH  24  31
ENDBRANCH  18  19
ENDBRANCH  16  18
ENDBRANCH  15  16
ENDBRANCH  14  15
ENDBRANCH  13  14
ENDBRANCH   1  13
TORSDOF 25
