REMARK SMILES CCC[C@@H]1C[C@@H](C(=O)N[C@@H]([C@H]2O[C@H](SC)[C@H](OP(=O)(O)O)[C@@H](O)[C@H]2O)[C@H](C)Cl)N(C)C1
REMARK SMILES IDX 10 1 9 2 7 3 8 4 6 6 4 7 5 8 31 9 29 10 30 11 3 12 2 13 1 14
REMARK SMILES IDX 26 15 27 16 28 17 11 18 12 19 24 20 13 21 22 22 16 23 25 24
REMARK SMILES IDX 14 26 15 27 23 28 17 30 18 31 19 32 20 33 21 35
REMARK H PARENT 9 5 25 25 23 29 20 34 21 36
ROOT
ATOM      1  C   UNL     1       0.834   0.008  -2.176  1.00  0.00     0.131 C 
ENDROOT
BRANCH   1   2
ATOM      2  N   UNL     1      -0.317  -0.252  -1.276  1.00  0.00    -0.348 N 
ATOM      3  C   UNL     1      -0.901   0.741  -0.509  1.00  0.00     0.237 C 
ATOM      4  O   UNL     1      -0.498   1.901  -0.547  1.00  0.00    -0.273 OA
ATOM      5  H   UNL     1      -0.575  -1.212  -1.090  1.00  0.00     0.163 HD
BRANCH   3   6
ATOM      6  C   UNL     1      -2.054   0.232   0.380  1.00  0.00     0.146 C 
ATOM      7  C   UNL     1      -4.415   0.787   0.174  1.00  0.00     0.005 C 
ATOM      8  C   UNL     1      -3.308  -0.072  -0.449  1.00  0.00     0.034 C 
ATOM      9  C   UNL     1      -3.907   1.027   1.589  1.00  0.00     0.088 C 
ATOM     10  N   UNL     1      -2.481   1.248   1.357  1.00  0.00    -0.295 NA
ATOM     11  C   UNL     1      -1.702   1.235   2.586  1.00  0.00     0.106 C 
BRANCH   7  12
ATOM     12  C   UNL     1      -5.796   0.131   0.073  1.00  0.00     0.005 C 
BRANCH  12  13
ATOM     13  C   UNL     1      -6.939   0.986   0.630  1.00  0.00    -0.003 C 
ATOM     14  C   UNL     1      -7.248   0.702   2.093  1.00  0.00     0.004 C 
ENDBRANCH  12  13
ENDBRANCH   7  12
ENDBRANCH   3   6
ENDBRANCH   1   2
BRANCH   1  15
ATOM     15  C   UNL     1       0.723  -0.922  -3.418  1.00  0.00     0.103 C 
ATOM     16  C   UNL     1       1.103  -2.379  -3.182  1.00  0.00     0.027 C 
ATOM     17  Cl  UNL     1       1.628  -0.282  -4.827  1.00  0.00    -0.121 Cl
ENDBRANCH   1  15
BRANCH   1  18
ATOM     18  C   UNL     1       2.175  -0.037  -1.367  1.00  0.00     0.175 C 
ATOM     19  O   UNL     1       3.267  -0.384  -2.213  1.00  0.00    -0.356 OA
ATOM     20  C   UNL     1       2.449   1.263  -0.549  1.00  0.00     0.177 C 
ATOM     21  C   UNL     1       4.559  -0.485  -1.596  1.00  0.00     0.208 C 
ATOM     22  C   UNL     1       3.935   1.454  -0.183  1.00  0.00     0.179 C 
ATOM     23  C   UNL     1       4.678   0.123  -0.179  1.00  0.00     0.201 C 
BRANCH  20  24
ATOM     24  O   UNL     1       2.035   2.468  -1.210  1.00  0.00    -0.388 OA
ATOM     25  H   UNL     1       1.066   2.554  -1.041  1.00  0.00     0.211 HD
ENDBRANCH  20  24
BRANCH  21  26
ATOM     26  S   UNL     1       5.274  -2.166  -1.803  1.00  0.00    -0.131 SA
ATOM     27  C   UNL     1       4.172  -3.174  -0.787  1.00  0.00     0.088 C 
ENDBRANCH  21  26
BRANCH  22  28
ATOM     28  O   UNL     1       4.568   2.364  -1.091  1.00  0.00    -0.387 OA
ATOM     29  H   UNL     1       3.830   2.911  -1.446  1.00  0.00     0.211 HD
ENDBRANCH  22  28
BRANCH  23  30
ATOM     30  O   UNL     1       4.096  -0.692   0.839  1.00  0.00    -0.277 OA
BRANCH  30  31
ATOM     31  P   UNL     1       4.952  -0.907   2.172  1.00  0.00     0.470 P 
ATOM     32  O   UNL     1       6.341  -1.415   2.030  1.00  0.00    -0.228 OA
BRANCH  31  33
ATOM     33  O   UNL     1       4.924   0.517   2.894  1.00  0.00    -0.303 OA
ATOM     34  H   UNL     1       5.803   0.705   3.281  1.00  0.00     0.223 HD
ENDBRANCH  31  33
BRANCH  31  35
ATOM     35  O   UNL     1       4.005  -1.735   3.148  1.00  0.00    -0.303 OA
ATOM     36  H   UNL     1       3.259  -1.193   3.461  1.00  0.00     0.223 HD
ENDBRANCH  31  35
ENDBRANCH  30  31
ENDBRANCH  23  30
ENDBRANCH   1  18
TORSDOF 13
