REMARK SMILES Oc1c(I)cc(Cl)c2cccnc12
REMARK SMILES IDX 2 1 13 2 12 3 11 4 10 5 9 6 8 7 6 8 7 9 5 10 3 11 4 12 1 13
REMARK H PARENT 1 14
ROOT
ATOM      1  C   UNL     1       1.580  -0.559  -0.189  1.00  0.00     0.155 A 
ATOM      2  C   UNL     1       0.194  -0.611  -0.049  1.00  0.00     0.114 A 
ATOM      3  N   UNL     1      -0.393  -1.828  -0.047  1.00  0.00    -0.252 NA
ATOM      4  C   UNL     1      -1.735  -1.886   0.088  1.00  0.00     0.112 A 
ATOM      5  C   UNL     1      -2.539  -0.773   0.224  1.00  0.00     0.021 A 
ATOM      6  C   UNL     1      -1.928   0.476   0.221  1.00  0.00     0.013 A 
ATOM      7  C   UNL     1      -0.527   0.593   0.083  1.00  0.00     0.023 A 
ATOM      8  C   UNL     1       0.188   1.817   0.067  1.00  0.00     0.051 A 
ATOM      9  Cl  UNL     1      -0.617   3.344   0.223  1.00  0.00    -0.084 Cl
ATOM     10  C   UNL     1       1.578   1.844  -0.074  1.00  0.00     0.040 A 
ATOM     11  C   UNL     1       2.278   0.649  -0.203  1.00  0.00     0.059 A 
ATOM     12  I   UNL     1       4.353   0.729  -0.413  1.00  0.00    -0.040 I 
ENDROOT
BRANCH   1  13
ATOM     13  O   UNL     1       2.251  -1.756  -0.315  1.00  0.00    -0.505 OA
ATOM     14  H   UNL     1       1.545  -2.437  -0.275  1.00  0.00     0.293 HD
ENDBRANCH   1  13
TORSDOF 1
