REMARK SMILES CCCO[C@H]1[C@@H]([C@@H](COCc2ccc(Cl)cc2)OCc2ccc(Cl)cc2)OC(OCC)[C@@H]1O
REMARK SMILES IDX 7 1 6 2 5 3 32 4 28 5 27 6 4 7 3 8 2 9 1 10 33 11 29 13
REMARK SMILES IDX 30 14 31 15 8 16 9 17 10 18 11 19 12 20 17 21 13 22 16 23
REMARK SMILES IDX 14 24 15 25 18 26 19 27 20 28 21 29 26 30 22 31 25 32 23 33
REMARK SMILES IDX 24 34
REMARK H PARENT 33 12
ROOT
ATOM      1  C   UNL     1       0.855   0.817   0.618  1.00  0.00     0.176 C 
ENDROOT
BRANCH   1   2
ATOM      2  C   UNL     1      -0.375   1.161  -0.254  1.00  0.00     0.184 C 
ATOM      3  C   UNL     1      -1.744   0.970   0.420  1.00  0.00     0.183 C 
ATOM      4  C   UNL     1      -2.243  -0.309  -0.225  1.00  0.00     0.202 C 
ATOM      5  C   UNL     1      -1.680  -0.176  -1.637  1.00  0.00     0.281 C 
ATOM      6  O   UNL     1      -0.398   0.433  -1.502  1.00  0.00    -0.341 OA
BRANCH   3   7
ATOM      7  O   UNL     1      -1.631   0.922   1.842  1.00  0.00    -0.372 OA
BRANCH   7   8
ATOM      8  C   UNL     1      -2.888   0.911   2.513  1.00  0.00     0.160 C 
BRANCH   8   9
ATOM      9  C   UNL     1      -2.642   0.985   4.017  1.00  0.00     0.025 C 
ATOM     10  C   UNL     1      -1.903   2.248   4.436  1.00  0.00     0.006 C 
ENDBRANCH   8   9
ENDBRANCH   7   8
ENDBRANCH   3   7
BRANCH   4  11
ATOM     11  O   UNL     1      -3.669  -0.410  -0.223  1.00  0.00    -0.385 OA
ATOM     12  H   UNL     1      -3.873  -1.173  -0.799  1.00  0.00     0.211 HD
ENDBRANCH   4  11
BRANCH   5  13
ATOM     13  O   UNL     1      -1.658  -1.468  -2.237  1.00  0.00    -0.350 OA
BRANCH  13  14
ATOM     14  C   UNL     1      -0.935  -1.463  -3.465  1.00  0.00     0.160 C 
ATOM     15  C   UNL     1      -1.228  -2.756  -4.200  1.00  0.00     0.035 C 
ENDBRANCH  13  14
ENDBRANCH   5  13
ENDBRANCH   1   2
BRANCH   1  16
ATOM     16  C   UNL     1       0.979  -0.653   1.063  1.00  0.00     0.195 C 
BRANCH  16  17
ATOM     17  O   UNL     1       0.990  -1.556  -0.039  1.00  0.00    -0.374 OA
BRANCH  17  18
ATOM     18  C   UNL     1       1.008  -2.915   0.388  1.00  0.00     0.195 C 
BRANCH  18  19
ATOM     19  C   UNL     1       1.216  -3.820  -0.801  1.00  0.00    -0.022 A 
ATOM     20  C   UNL     1       2.239  -3.555  -1.726  1.00  0.00     0.007 A 
ATOM     21  C   UNL     1       0.425  -4.966  -0.974  1.00  0.00     0.007 A 
ATOM     22  C   UNL     1       2.459  -4.410  -2.809  1.00  0.00     0.021 A 
ATOM     23  C   UNL     1       0.646  -5.823  -2.057  1.00  0.00     0.021 A 
ATOM     24  C   UNL     1       1.659  -5.540  -2.970  1.00  0.00     0.041 A 
ATOM     25  Cl  UNL     1       1.923  -6.592  -4.306  1.00  0.00    -0.084 Cl
ENDBRANCH  18  19
ENDBRANCH  17  18
ENDBRANCH  16  17
ENDBRANCH   1  16
BRANCH   1  26
ATOM     26  O   UNL     1       2.046   1.193  -0.112  1.00  0.00    -0.368 OA
BRANCH  26  27
ATOM     27  C   UNL     1       2.939   2.022   0.633  1.00  0.00     0.196 C 
BRANCH  27  28
ATOM     28  C   UNL     1       2.410   3.434   0.734  1.00  0.00    -0.022 A 
ATOM     29  C   UNL     1       2.215   4.037   1.984  1.00  0.00     0.007 A 
ATOM     30  C   UNL     1       2.088   4.153  -0.427  1.00  0.00     0.007 A 
ATOM     31  C   UNL     1       1.691   5.329   2.071  1.00  0.00     0.021 A 
ATOM     32  C   UNL     1       1.566   5.446  -0.342  1.00  0.00     0.021 A 
ATOM     33  C   UNL     1       1.367   6.026   0.909  1.00  0.00     0.041 A 
ATOM     34  Cl  UNL     1       0.703   7.609   1.023  1.00  0.00    -0.084 Cl
ENDBRANCH  27  28
ENDBRANCH  26  27
ENDBRANCH   1  26
TORSDOF 14
