REMARK SMILES CN1C(=O)CC(=O)N(c2ccccc2)c2cc(Cl)ccc21
REMARK SMILES IDX 21 1 20 2 19 3 17 4 18 5 16 6 15 7 2 8 1 9 3 10 4 11 8 13
REMARK SMILES IDX 9 14 10 15 14 16 11 17 13 18 12 19 6 20 7 21 5 22
REMARK H PARENT
REMARK Flexibility Score:   19.900
ROOT
ATOM      1  C   UNL     1      -1.781   0.237   0.270  1.00  0.00     0.068 A 
ATOM      2  C   UNL     1      -2.589   1.212   0.896  1.00  0.00     0.030 A 
ATOM      3  C   UNL     1      -2.157   2.529   1.068  1.00  0.00     0.023 A 
ATOM      4  C   UNL     1      -0.903   2.898   0.617  1.00  0.00     0.043 A 
ATOM      5  Cl  UNL     1      -0.368   4.521   0.801  1.00  0.00    -0.084 Cl
ATOM      6  C   UNL     1      -0.073   1.955   0.017  1.00  0.00     0.049 A 
ATOM      7  C   UNL     1      -0.475   0.607  -0.145  1.00  0.00     0.074 A 
ENDROOT
BRANCH   1   8
ATOM      8  N   UNL     1      -2.323  -1.081   0.123  1.00  0.00    -0.313 N 
ATOM      9  C   UNL     1      -3.286  -1.569   1.104  1.00  0.00     0.153 C 
BRANCH   8  10
ATOM     10  C   UNL     1      -2.153  -1.861  -1.017  1.00  0.00     0.236 CG0
ATOM     11  O   UNL     1      -2.728  -2.939  -1.180  1.00  0.00    -0.274 OA
ATOM     12  G   UNL     1      -1.280  -1.298  -2.090  1.00  0.00     0.000 G0
ENDBRANCH   8  10
ENDBRANCH   1   8
BRANCH   7  13
ATOM     13  N   UNL     1       0.486  -0.315  -0.703  1.00  0.00    -0.278 N 
BRANCH  13  14
ATOM     14  C   UNL     1       1.856  -0.188  -0.260  1.00  0.00     0.049 A 
ATOM     15  C   UNL     1       2.158   0.149   1.073  1.00  0.00     0.027 A 
ATOM     16  C   UNL     1       2.930  -0.417  -1.133  1.00  0.00     0.027 A 
ATOM     17  C   UNL     1       3.482   0.274   1.507  1.00  0.00     0.002 A 
ATOM     18  C   UNL     1       4.254  -0.292  -0.700  1.00  0.00     0.002 A 
ATOM     19  C   UNL     1       4.529   0.057   0.618  1.00  0.00     0.000 A 
ENDBRANCH  13  14
BRANCH  13  20
ATOM     20  C   UNL     1       0.141  -1.307  -1.628  1.00  0.00     0.241 C 
ATOM     21  O   UNL     1       0.910  -2.160  -2.076  1.00  0.00    -0.274 OA
BRANCH  20  22
ATOM     22  C   UNL     1      -1.280  -1.298  -2.090  1.00  0.00     0.201 CG0
ATOM     23  G   UNL     1      -2.153  -1.861  -1.017  1.00  0.00     0.000 G0
ENDBRANCH  20  22
ENDBRANCH  13  20
ENDBRANCH   7  13
TORSDOF 1
