REMARK SMILES CN1[C@@H]2CC[C@H]1CC(OC(c1ccccc1)c1ccc(Cl)cc1)C2
REMARK SMILES IDX 9 1 8 2 2 3 6 4 3 5 5 6 7 7 4 8 24 9 1 10 10 11 11 12 12 13
REMARK SMILES IDX 16 14 13 15 15 16 14 17 17 18 18 19 23 20 19 21 22 22 20 23
REMARK SMILES IDX 21 24
REMARK H PARENT
ROOT
ATOM      1  O   UNL     1      -0.224   0.075   0.934  1.00  0.00    -0.365 OA
ENDROOT
BRANCH   1   2
ATOM      2  C   UNL     1       1.033   0.451   0.359  1.00  0.00     0.122 C 
ATOM      3  N   UNL     1       3.511   0.638  -0.559  1.00  0.00    -0.300 NA
ATOM      4  C   UNL     1       2.777  -0.373  -1.344  1.00  0.00     0.059 C 
ATOM      5  C   UNL     1       3.533   0.024   0.783  1.00  0.00     0.059 C 
ATOM      6  C   UNL     1       3.347  -1.718  -0.881  1.00  0.00     0.021 C 
ATOM      7  C   UNL     1       1.282  -0.255  -0.986  1.00  0.00     0.051 C 
ATOM      8  C   UNL     1       3.859  -1.452   0.529  1.00  0.00     0.021 C 
ATOM      9  C   UNL     1       2.129   0.174   1.400  1.00  0.00     0.051 C 
ATOM     10  C   UNL     1       4.849   0.902  -1.084  1.00  0.00     0.105 C 
ENDBRANCH   1   2
BRANCH   1  11
ATOM     11  C   UNL     1      -1.373   0.595   0.245  1.00  0.00     0.179 C 
BRANCH  11  12
ATOM     12  C   UNL     1      -2.081  -0.535  -0.486  1.00  0.00    -0.015 A 
ATOM     13  C   UNL     1      -2.273  -1.788   0.120  1.00  0.00     0.007 A 
ATOM     14  C   UNL     1      -2.575  -0.336  -1.786  1.00  0.00     0.007 A 
ATOM     15  C   UNL     1      -2.932  -2.814  -0.558  1.00  0.00     0.000 A 
ATOM     16  C   UNL     1      -3.234  -1.365  -2.462  1.00  0.00     0.000 A 
ATOM     17  C   UNL     1      -3.412  -2.603  -1.848  1.00  0.00     0.000 A 
ENDBRANCH  11  12
BRANCH  11  18
ATOM     18  C   UNL     1      -2.290   1.298   1.242  1.00  0.00    -0.015 A 
ATOM     19  C   UNL     1      -2.318   0.939   2.601  1.00  0.00     0.008 A 
ATOM     20  C   UNL     1      -3.155   2.315   0.800  1.00  0.00     0.008 A 
ATOM     21  C   UNL     1      -3.176   1.585   3.494  1.00  0.00     0.021 A 
ATOM     22  C   UNL     1      -4.014   2.961   1.693  1.00  0.00     0.021 A 
ATOM     23  C   UNL     1      -4.020   2.593   3.036  1.00  0.00     0.041 A 
ATOM     24  Cl  UNL     1      -5.078   3.389   4.135  1.00  0.00    -0.084 Cl
ENDBRANCH  11  18
ENDBRANCH   1  11
TORSDOF 4
