REMARK SMILES Clc1ccc(C(c2ccc(Cl)cc2)C(Cl)(Cl)Cl)cc1
REMARK SMILES IDX 6 1 5 2 2 3 3 4 19 5 4 6 18 7 1 8 7 9 8 10 13 11 9 12 12 13
REMARK SMILES IDX 10 14 11 15 14 16 15 17 16 18 17 19
REMARK H PARENT
ROOT
ATOM      1  C   UNL     1       0.023  -1.164  -0.196  1.00  0.00     0.101 C 
ENDROOT
BRANCH   1   2
ATOM      2  C   UNL     1       1.255  -0.273   0.041  1.00  0.00    -0.036 A 
ATOM      3  C   UNL     1       3.523   1.341   0.430  1.00  0.00     0.041 A 
ATOM      4  C   UNL     1       2.514   1.321   1.388  1.00  0.00     0.021 A 
ATOM      5  C   UNL     1       3.412   0.568  -0.722  1.00  0.00     0.021 A 
ATOM      6  C   UNL     1       1.385   0.520   1.195  1.00  0.00     0.006 A 
ATOM      7  C   UNL     1       2.284  -0.232  -0.917  1.00  0.00     0.006 A 
ATOM      8  Cl  UNL     1       4.911   2.328   0.668  1.00  0.00    -0.084 Cl
ENDBRANCH   1   2
BRANCH   1   9
ATOM      9  C   UNL     1      -1.276  -0.341  -0.087  1.00  0.00    -0.036 A 
ATOM     10  C   UNL     1      -2.108  -0.334   1.042  1.00  0.00     0.006 A 
ATOM     11  C   UNL     1      -1.632   0.485  -1.174  1.00  0.00     0.006 A 
ATOM     12  C   UNL     1      -3.265   0.454   1.076  1.00  0.00     0.021 A 
ATOM     13  C   UNL     1      -2.786   1.272  -1.139  1.00  0.00     0.021 A 
ATOM     14  C   UNL     1      -3.600   1.251  -0.014  1.00  0.00     0.041 A 
ATOM     15  Cl  UNL     1      -5.021   2.218   0.036  1.00  0.00    -0.084 Cl
ENDBRANCH   1   9
BRANCH   1  16
ATOM     16  C   UNL     1       0.099  -2.566   0.514  1.00  0.00     0.201 C 
ATOM     17  Cl  UNL     1       1.507  -3.524  -0.122  1.00  0.00    -0.083 Cl
ATOM     18  Cl  UNL     1       0.296  -2.495   2.300  1.00  0.00    -0.083 Cl
ATOM     19  Cl  UNL     1      -1.366  -3.563   0.152  1.00  0.00    -0.083 Cl
ENDBRANCH   1  16
TORSDOF 3
