REMARK SMILES CCOC(=O)C(C)(C)Oc1ccc(Cl)cc1
REMARK SMILES IDX 4 1 5 2 3 3 2 4 1 5 6 6 7 7 8 8 9 9 10 10 11 11 16 12 12 13
REMARK SMILES IDX 15 14 13 15 14 16
REMARK H PARENT
ROOT
ATOM      1  C   UNL     1       1.556  -0.637   0.057  1.00  0.00     0.349 C 
ATOM      2  O   UNL     1       2.445  -0.502  -0.776  1.00  0.00    -0.247 OA
ENDROOT
BRANCH   1   3
ATOM      3  O   UNL     1       1.400   0.150   1.161  1.00  0.00    -0.463 OA
BRANCH   3   4
ATOM      4  C   UNL     1       2.345   1.219   1.315  1.00  0.00     0.229 C 
ATOM      5  C   UNL     1       1.878   2.443   0.549  1.00  0.00     0.049 C 
ENDBRANCH   3   4
ENDBRANCH   1   3
BRANCH   1   6
ATOM      6  C   UNL     1       0.455  -1.720  -0.005  1.00  0.00     0.200 C 
ATOM      7  C   UNL     1       0.496  -2.494  -1.333  1.00  0.00     0.069 C 
ATOM      8  C   UNL     1       0.794  -2.725   1.115  1.00  0.00     0.069 C 
BRANCH   6   9
ATOM      9  O   UNL     1      -0.883  -1.301   0.275  1.00  0.00    -0.476 OA
BRANCH   9  10
ATOM     10  C   UNL     1      -1.457  -0.224  -0.333  1.00  0.00     0.121 A 
ATOM     11  C   UNL     1      -0.933   0.534  -1.379  1.00  0.00     0.048 A 
ATOM     12  C   UNL     1      -2.713   0.114   0.184  1.00  0.00     0.048 A 
ATOM     13  C   UNL     1      -1.652   1.622  -1.892  1.00  0.00     0.024 A 
ATOM     14  C   UNL     1      -3.434   1.197  -0.324  1.00  0.00     0.024 A 
ATOM     15  C   UNL     1      -2.897   1.949  -1.363  1.00  0.00     0.041 A 
ATOM     16  Cl  UNL     1      -3.774   3.286  -1.996  1.00  0.00    -0.084 Cl
ENDBRANCH   9  10
ENDBRANCH   6   9
ENDBRANCH   1   6
TORSDOF 5
