REMARK SMILES CN(C)CCCC1c2ccccc2Nc2ccc(Cl)cc21
REMARK SMILES IDX 5 1 4 2 2 3 1 4 3 5 6 6 7 7 8 8 21 9 9 10 13 11 15 12 20 13
REMARK SMILES IDX 10 14 12 15 14 16 16 17 18 18 11 19 17 20 19 22
REMARK H PARENT 14 21
ROOT
ATOM      1  C   UNL     1       1.347  -0.079   1.473  1.00  0.00     0.016 C 
ENDROOT
BRANCH   1   2
ATOM      2  C   UNL     1       2.510   0.301   0.545  1.00  0.00     0.084 C 
BRANCH   2   3
ATOM      3  N   UNL     1       3.785  -0.317   0.948  1.00  0.00    -0.309 NA
ATOM      4  C   UNL     1       3.784  -1.769   0.749  1.00  0.00     0.104 C 
ATOM      5  C   UNL     1       4.892   0.281   0.196  1.00  0.00     0.104 C 
ENDBRANCH   2   3
ENDBRANCH   1   2
BRANCH   1   6
ATOM      6  C   UNL     1       0.055   0.694   1.171  1.00  0.00     0.014 C 
BRANCH   6   7
ATOM      7  C   UNL     1      -0.569   0.490  -0.236  1.00  0.00     0.054 C 
ATOM      8  C   UNL     1      -1.642   1.562  -0.433  1.00  0.00    -0.017 A 
ATOM      9  C   UNL     1      -1.114  -0.925  -0.413  1.00  0.00    -0.015 A 
ATOM     10  C   UNL     1      -1.286   2.885  -0.739  1.00  0.00     0.006 A 
ATOM     11  C   UNL     1      -2.996   1.234  -0.247  1.00  0.00     0.042 A 
ATOM     12  C   UNL     1      -2.486  -1.171  -0.220  1.00  0.00     0.042 A 
ATOM     13  C   UNL     1      -0.267  -1.994  -0.746  1.00  0.00     0.027 A 
ATOM     14  C   UNL     1      -2.265   3.875  -0.828  1.00  0.00     0.000 A 
ATOM     15  C   UNL     1      -3.965   2.240  -0.303  1.00  0.00     0.026 A 
ATOM     16  N   UNL     1      -3.354  -0.096   0.047  1.00  0.00    -0.355 N 
ATOM     17  C   UNL     1      -2.971  -2.483  -0.259  1.00  0.00     0.028 A 
ATOM     18  C   UNL     1      -0.770  -3.292  -0.815  1.00  0.00     0.041 A 
ATOM     19  C   UNL     1      -3.601   3.555  -0.601  1.00  0.00     0.002 A 
ATOM     20  C   UNL     1      -2.115  -3.543  -0.560  1.00  0.00     0.022 A 
ATOM     21  H   UNL     1      -4.337  -0.302  -0.079  1.00  0.00     0.167 HD
ATOM     22  Cl  UNL     1       0.287  -4.594  -1.201  1.00  0.00    -0.084 Cl
ENDBRANCH   6   7
ENDBRANCH   1   6
TORSDOF 4
