REMARK SMILES Cc1c(Cl)cccc1Nc1ncccc1C(=O)O
REMARK SMILES IDX 10 1 15 2 14 3 13 4 12 5 11 6 9 7 8 9 2 10 3 11 7 12 5 13
REMARK SMILES IDX 6 14 1 15 4 16 16 17 17 18 18 19
REMARK H PARENT 9 8 18 20
ROOT
ATOM      1  C   UNL     1       1.330  -0.340   0.061  1.00  0.00     0.144 A 
ATOM      2  C   UNL     1       2.230  -1.002  -0.790  1.00  0.00     0.102 A 
ATOM      3  C   UNL     1       3.571  -1.133  -0.404  1.00  0.00     0.021 A 
ATOM      4  C   UNL     1       3.987  -0.625   0.819  1.00  0.00     0.021 A 
ATOM      5  C   UNL     1       3.043   0.002   1.608  1.00  0.00     0.113 A 
ATOM      6  N   UNL     1       1.749   0.158   1.251  1.00  0.00    -0.238 NA
ENDROOT
BRANCH   1   7
ATOM      7  N   UNL     1      -0.011  -0.137  -0.344  1.00  0.00    -0.339 N 
ATOM      8  H   UNL     1      -0.335  -0.955  -0.854  1.00  0.00     0.168 HD
BRANCH   7   9
ATOM      9  C   UNL     1      -1.037   0.654   0.223  1.00  0.00     0.044 A 
ATOM     10  C   UNL     1      -2.403   0.302   0.054  1.00  0.00    -0.009 A 
ATOM     11  C   UNL     1      -3.395   1.144   0.598  1.00  0.00     0.046 A 
ATOM     12  C   UNL     1      -0.726   1.835   0.917  1.00  0.00     0.026 A 
ATOM     13  C   UNL     1      -3.053   2.309   1.290  1.00  0.00     0.021 A 
ATOM     14  C   UNL     1      -1.719   2.655   1.450  1.00  0.00     0.004 A 
ATOM     15  C   UNL     1      -2.762  -0.971  -0.677  1.00  0.00     0.048 C 
ATOM     16  Cl  UNL     1      -5.088   0.810   0.446  1.00  0.00    -0.084 Cl
ENDBRANCH   7   9
ENDBRANCH   1   7
BRANCH   2  17
ATOM     17  C   UNL     1       1.858  -1.566  -2.103  1.00  0.00     0.339 C 
ATOM     18  O   UNL     1       2.619  -1.762  -3.033  1.00  0.00    -0.246 OA
BRANCH  17  19
ATOM     19  O   UNL     1       0.561  -1.928  -2.189  1.00  0.00    -0.478 OA
ATOM     20  H   UNL     1       0.481  -2.259  -3.114  1.00  0.00     0.297 HD
ENDBRANCH  17  19
ENDBRANCH   2  17
TORSDOF 4
