REMARK SMILES O=C1c2ccccc2C(=O)C1c1ccc(Cl)cc1
REMARK SMILES IDX 16 1 15 2 14 3 13 4 12 5 18 6 17 7 11 8 2 9 9 10 1 11 3 12
REMARK SMILES IDX 8 13 10 14 4 15 7 16 5 17 6 18
REMARK H PARENT
ROOT
ATOM      1  Cl  UNL     1      -5.754  -0.220   1.318  1.00  0.00    -0.084 Cl
ATOM      2  C   UNL     1      -4.179  -0.258   0.628  1.00  0.00     0.041 A 
ATOM      3  C   UNL     1      -3.360   0.864   0.709  1.00  0.00     0.021 A 
ATOM      4  C   UNL     1      -2.077   0.835   0.151  1.00  0.00     0.006 A 
ATOM      5  C   UNL     1      -1.603  -0.315  -0.499  1.00  0.00    -0.029 A 
ATOM      6  C   UNL     1      -2.448  -1.438  -0.566  1.00  0.00     0.006 A 
ATOM      7  C   UNL     1      -3.728  -1.411  -0.007  1.00  0.00     0.021 A 
ENDROOT
BRANCH   5   8
ATOM      8  C   UNL     1      -0.219  -0.410  -1.112  1.00  0.00     0.163 C 
ATOM      9  C   UNL     1       0.731  -1.272  -0.287  1.00  0.00     0.178 C 
ATOM     10  C   UNL     1       0.547   0.898  -1.246  1.00  0.00     0.178 C 
ATOM     11  O   UNL     1       0.578  -2.428   0.066  1.00  0.00    -0.293 OA
ATOM     12  C   UNL     1       1.929  -0.491   0.018  1.00  0.00     0.029 A 
ATOM     13  C   UNL     1       1.823   0.772  -0.543  1.00  0.00     0.029 A 
ATOM     14  O   UNL     1       0.207   1.910  -1.833  1.00  0.00    -0.293 OA
ATOM     15  C   UNL     1       3.043  -0.874   0.743  1.00  0.00     0.012 A 
ATOM     16  C   UNL     1       2.826   1.714  -0.406  1.00  0.00     0.012 A 
ATOM     17  C   UNL     1       4.068   0.064   0.894  1.00  0.00     0.001 A 
ATOM     18  C   UNL     1       3.961   1.348   0.324  1.00  0.00     0.001 A 
ENDBRANCH   5   8
TORSDOF 1
