REMARK SMILES CC(=O)O[C@H]1CC[C@H]2[C@@H]3CCC4=C(Cl)C(=O)CC[C@]4(C)[C@H]3CC[C@]12C
REMARK SMILES IDX 4 1 2 2 3 3 1 4 5 5 6 6 24 7 7 8 23 9 8 10 22 11 9 12 21 13
REMARK SMILES IDX 10 14 19 15 11 16 18 17 12 18 17 19 13 20 15 21 16 22 25 23
REMARK SMILES IDX 20 24 14 25
REMARK H PARENT
ROOT
ATOM      1  O   UNL     1       4.374  -0.433  -0.275  1.00  0.00    -0.462 OA
ENDROOT
BRANCH   1   2
ATOM      2  C   UNL     1       4.723  -1.734  -0.088  1.00  0.00     0.302 C 
ATOM      3  O   UNL     1       4.178  -2.520   0.673  1.00  0.00    -0.253 OA
ATOM      4  C   UNL     1       5.890  -2.077  -0.963  1.00  0.00     0.139 C 
ENDBRANCH   1   2
BRANCH   1   5
ATOM      5  C   UNL     1       3.259   0.037   0.489  1.00  0.00     0.182 C 
ATOM      6  C   UNL     1       3.391   1.562   0.698  1.00  0.00     0.046 C 
ATOM      7  C   UNL     1       1.900  -0.110  -0.234  1.00  0.00     0.008 C 
ATOM      8  C   UNL     1       1.967   2.139   0.629  1.00  0.00     0.008 C 
ATOM      9  C   UNL     1       1.235  -1.490  -0.115  1.00  0.00     0.011 C 
ATOM     10  C   UNL     1       1.070   0.905   0.589  1.00  0.00     0.002 C 
ATOM     11  C   UNL     1      -0.250  -1.457  -0.531  1.00  0.00     0.005 C 
ATOM     12  C   UNL     1      -0.368   1.028   0.072  1.00  0.00    -0.003 C 
ATOM     13  C   UNL     1      -1.052  -0.367   0.222  1.00  0.00     0.002 C 
ATOM     14  C   UNL     1      -1.184   2.152   0.730  1.00  0.00     0.009 C 
ATOM     15  C   UNL     1      -2.583  -0.290  -0.110  1.00  0.00    -0.006 C 
ATOM     16  C   UNL     1      -2.349   1.665   1.588  1.00  0.00     0.033 C 
ATOM     17  C   UNL     1      -3.228  -1.692   0.013  1.00  0.00     0.020 C 
ATOM     18  C   UNL     1      -3.251   0.639   0.919  1.00  0.00    -0.042 C 
ATOM     19  C   UNL     1      -4.744  -1.671  -0.132  1.00  0.00     0.083 C 
ATOM     20  C   UNL     1      -4.544   0.484   1.282  1.00  0.00     0.083 C 
ATOM     21  C   UNL     1      -5.400  -0.601   0.705  1.00  0.00     0.174 C 
ATOM     22  O   UNL     1      -6.619  -0.623   0.881  1.00  0.00    -0.293 OA
ATOM     23  C   UNL     1       2.056   0.242  -1.738  1.00  0.00     0.015 C 
ATOM     24  C   UNL     1      -2.827   0.257  -1.537  1.00  0.00     0.016 C 
ATOM     25  Cl  UNL     1      -5.312   1.477   2.476  1.00  0.00    -0.080 Cl
ENDBRANCH   1   5
TORSDOF 2
