REMARK SMILES COc1c(OCCCN2CCOCC2)ccc2c1N=C(NC(=O)c1cnc(N)nc1)N1CCN=C21
REMARK SMILES IDX 5 1 4 2 3 3 18 4 15 5 17 6 19 7 16 8 35 9 20 10 34 11 31 12
REMARK SMILES IDX 21 13 33 14 32 15 22 16 23 17 2 19 1 20 24 21 25 22 30 23
REMARK SMILES IDX 26 24 29 25 27 26 28 27 6 30 7 31 8 32 9 33 10 34 14 35
REMARK SMILES IDX 11 36 13 37 12 38
REMARK H PARENT 21 18 28 28 28 29
ROOT
ATOM      1  O   UNL     1      -2.036  -0.173   1.403  1.00  0.00    -0.490 OA
ENDROOT
BRANCH   1   2
ATOM      2  C   UNL     1      -1.128  -0.678   0.505  1.00  0.00     0.163 A 
ATOM      3  C   UNL     1       0.166  -0.115   0.548  1.00  0.00     0.187 A 
ATOM      4  C   UNL     1       1.182  -0.554  -0.321  1.00  0.00     0.124 A 
ATOM      5  C   UNL     1      -1.411  -1.689  -0.420  1.00  0.00     0.051 A 
ATOM      6  C   UNL     1       0.851  -1.571  -1.235  1.00  0.00     0.047 A 
ATOM      7  N   UNL     1       2.485   0.018  -0.257  1.00  0.00    -0.210 NA
ATOM      8  C   UNL     1      -0.422  -2.137  -1.296  1.00  0.00     0.018 A 
ATOM      9  C   UNL     1       1.930  -2.017  -2.125  1.00  0.00     0.140 C 
ATOM     10  C   UNL     1       3.403  -0.421  -1.064  1.00  0.00     0.212 C 
ATOM     11  N   UNL     1       1.794  -2.917  -3.064  1.00  0.00    -0.266 NA
ATOM     12  N   UNL     1       3.158  -1.432  -1.961  1.00  0.00    -0.294 N 
ATOM     13  N   UNL     1       4.672   0.118  -0.990  1.00  0.00    -0.292 N 
ATOM     14  C   UNL     1       3.156  -3.004  -3.662  1.00  0.00     0.166 C 
ATOM     15  C   UNL     1       4.017  -1.904  -3.020  1.00  0.00     0.151 C 
ATOM     16  C   UNL     1       5.050   1.198  -0.204  1.00  0.00     0.261 C 
ATOM     17  O   UNL     1       4.378   2.201   0.006  1.00  0.00    -0.269 OA
ATOM     18  H   UNL     1       5.402  -0.423  -1.423  1.00  0.00     0.173 HD
BRANCH   3  19
ATOM     19  O   UNL     1       0.409   0.832   1.521  1.00  0.00    -0.491 OA
ATOM     20  C   UNL     1       0.663   2.115   0.953  1.00  0.00     0.278 C 
ENDBRANCH   3  19
BRANCH  16  21
ATOM     21  C   UNL     1       6.452   1.194   0.242  1.00  0.00     0.077 A 
ATOM     22  C   UNL     1       7.148   0.052   0.564  1.00  0.00     0.130 A 
ATOM     23  C   UNL     1       7.153   2.368   0.399  1.00  0.00     0.130 A 
ATOM     24  N   UNL     1       8.443   0.050   0.949  1.00  0.00    -0.221 NA
ATOM     25  N   UNL     1       8.449   2.413   0.785  1.00  0.00    -0.221 NA
ATOM     26  C   UNL     1       9.046   1.242   1.029  1.00  0.00     0.219 A 
BRANCH  26  27
ATOM     27  N   UNL     1      10.365   1.267   1.419  1.00  0.00    -0.368 N 
ATOM     28  H   UNL     1      10.589   2.165   1.824  1.00  0.00     0.159 HD
ATOM     29  H   UNL     1      10.591   0.443   1.958  1.00  0.00     0.159 HD
ENDBRANCH  26  27
ENDBRANCH  16  21
ENDBRANCH   1   2
BRANCH   1  30
ATOM     30  C   UNL     1      -3.408  -0.528   1.224  1.00  0.00     0.231 C 
BRANCH  30  31
ATOM     31  C   UNL     1      -4.236   0.317   2.188  1.00  0.00     0.057 C 
BRANCH  31  32
ATOM     32  C   UNL     1      -5.728  -0.022   2.149  1.00  0.00     0.088 C 
BRANCH  32  33
ATOM     33  N   UNL     1      -6.334   0.078   0.812  1.00  0.00    -0.299 NA
ATOM     34  C   UNL     1      -6.388   1.476   0.326  1.00  0.00     0.113 C 
ATOM     35  C   UNL     1      -7.713  -0.464   0.831  1.00  0.00     0.113 C 
ATOM     36  C   UNL     1      -7.101   1.571  -1.034  1.00  0.00     0.175 C 
ATOM     37  C   UNL     1      -8.390  -0.328  -0.541  1.00  0.00     0.175 C 
ATOM     38  O   UNL     1      -8.431   1.040  -0.964  1.00  0.00    -0.379 OA
ENDBRANCH  32  33
ENDBRANCH  31  32
ENDBRANCH  30  31
ENDBRANCH   1  30
TORSDOF 8
