REMARK SMILES CN(CCOP(=O)(O)O)C(=N)N
REMARK SMILES IDX 4 1 3 2 2 3 1 4 10 5 12 6 11 7 5 11 6 12 7 13 8 14 9 16
REMARK H PARENT 12 8 12 9 11 10 8 15 9 17
ROOT
ATOM      1  C   UNL     1      -0.573  -0.712  -1.082  1.00  0.00     0.195 C 
ENDROOT
BRANCH   1   2
ATOM      2  C   UNL     1       0.193  -1.156   0.169  1.00  0.00     0.148 C 
BRANCH   2   3
ATOM      3  N   UNL     1       1.482  -0.464   0.261  1.00  0.00    -0.344 N 
ATOM      4  C   UNL     1       2.582  -1.099  -0.456  1.00  0.00     0.147 C 
BRANCH   3   5
ATOM      5  C   UNL     1       1.657   0.704   0.950  1.00  0.00     0.188 C 
ATOM      6  N   UNL     1       0.580   1.231   1.566  1.00  0.00    -0.370 N 
ATOM      7  N   UNL     1       2.760   1.357   1.092  1.00  0.00    -0.269 NA
ATOM      8  H   UNL     1       0.810   2.156   1.911  1.00  0.00     0.159 HD
ATOM      9  H   UNL     1      -0.278   1.252   1.021  1.00  0.00     0.159 HD
ATOM     10  H   UNL     1       3.514   0.868   0.615  1.00  0.00     0.191 HD
ENDBRANCH   3   5
ENDBRANCH   2   3
ENDBRANCH   1   2
BRANCH   1  11
ATOM     11  O   UNL     1      -1.956  -0.989  -0.928  1.00  0.00    -0.285 OA
BRANCH  11  12
ATOM     12  P   UNL     1      -2.925   0.218  -0.531  1.00  0.00     0.469 P 
ATOM     13  O   UNL     1      -4.318  -0.148  -0.158  1.00  0.00    -0.228 OA
BRANCH  12  14
ATOM     14  O   UNL     1      -2.869   1.231  -1.760  1.00  0.00    -0.303 OA
ATOM     15  H   UNL     1      -3.586   1.045  -2.395  1.00  0.00     0.223 HD
ENDBRANCH  12  14
BRANCH  12  16
ATOM     16  O   UNL     1      -2.174   1.028   0.625  1.00  0.00    -0.303 OA
ATOM     17  H   UNL     1      -2.836   1.440   1.214  1.00  0.00     0.223 HD
ENDBRANCH  12  16
ENDBRANCH  11  12
ENDBRANCH   1  11
TORSDOF 7
