REMARK SMILES C=C(c1ccccc1OCc1cccc(Cl)c1)n1ccnc1
REMARK SMILES IDX 9 1 10 2 11 3 15 4 14 5 17 6 13 7 12 8 16 9 8 10 3 11 7 12
REMARK SMILES IDX 4 13 6 14 5 15 2 16 1 17 18 18 19 19 22 20 20 21 21 22
REMARK H PARENT
ROOT
ATOM      1  O   UNL     1       0.390  -0.426   0.671  1.00  0.00    -0.488 OA
ENDROOT
BRANCH   1   2
ATOM      2  C   UNL     1       1.067  -1.670   0.530  1.00  0.00     0.265 C 
BRANCH   2   3
ATOM      3  C   UNL     1       1.943  -1.583  -0.695  1.00  0.00    -0.009 A 
ATOM      4  C   UNL     1       3.831  -0.598  -1.859  1.00  0.00     0.041 A 
ATOM      5  C   UNL     1       3.579  -1.402  -2.970  1.00  0.00     0.020 A 
ATOM      6  C   UNL     1       3.022  -0.684  -0.727  1.00  0.00     0.027 A 
ATOM      7  C   UNL     1       2.506  -2.295  -2.951  1.00  0.00     0.002 A 
ATOM      8  C   UNL     1       1.690  -2.384  -1.821  1.00  0.00     0.007 A 
ATOM      9  Cl  UNL     1       5.152   0.508  -1.883  1.00  0.00    -0.084 Cl
ENDBRANCH   2   3
ENDBRANCH   1   2
BRANCH   1  10
ATOM     10  C   UNL     1      -0.529  -0.305   1.681  1.00  0.00     0.129 A 
ATOM     11  C   UNL     1      -1.312   0.867   1.664  1.00  0.00     0.040 A 
ATOM     12  C   UNL     1      -0.723  -1.245   2.698  1.00  0.00     0.047 A 
ATOM     13  C   UNL     1      -2.278   1.073   2.662  1.00  0.00     0.014 A 
ATOM     14  C   UNL     1      -1.687  -1.028   3.686  1.00  0.00     0.004 A 
ATOM     15  C   UNL     1      -2.464   0.127   3.669  1.00  0.00     0.001 A 
BRANCH  11  16
ATOM     16  C   UNL     1      -1.147   1.891   0.600  1.00  0.00     0.050 C 
ATOM     17  C   UNL     1      -0.462   2.996   0.961  1.00  0.00     0.038 C 
BRANCH  16  18
ATOM     18  N   UNL     1      -1.672   1.668  -0.693  1.00  0.00    -0.306 N 
ATOM     19  C   UNL     1      -1.586   2.487  -1.806  1.00  0.00     0.113 A 
ATOM     20  C   UNL     1      -2.407   0.576  -1.129  1.00  0.00     0.204 A 
ATOM     21  C   UNL     1      -2.262   1.850  -2.819  1.00  0.00     0.131 A 
ATOM     22  N   UNL     1      -2.775   0.664  -2.388  1.00  0.00    -0.245 NA
ENDBRANCH  16  18
ENDBRANCH  11  16
ENDBRANCH   1  10
TORSDOF 5
