REMARK SMILES COc1cc(C=C2CCCC(=Cc3ccc(O)c(OC)c3)C2=O)ccc1O
REMARK SMILES IDX 6 1 7 2 8 3 9 4 10 5 11 6 12 7 22 8 23 9 5 10 3 11 26 12
REMARK SMILES IDX 4 13 25 14 24 15 2 16 1 17 27 18 13 20 21 21 14 22 18 23
REMARK SMILES IDX 15 24 16 25 19 26 20 27 17 28
REMARK H PARENT 27 19 17 29
ROOT
ATOM      1  C   UNL     1       2.421  -1.605  -1.842  1.00  0.00     0.016 C 
ATOM      2  C   UNL     1       1.267  -1.885  -1.205  1.00  0.00     0.000 C 
ATOM      3  C   UNL     1       0.446  -3.089  -1.590  1.00  0.00     0.040 C 
ATOM      4  C   UNL     1      -1.001  -3.037  -1.101  1.00  0.00     0.010 C 
ATOM      5  C   UNL     1      -1.560  -1.620  -1.172  1.00  0.00     0.040 C 
ATOM      6  C   UNL     1      -0.763  -0.702  -0.288  1.00  0.00     0.000 C 
ATOM      7  C   UNL     1      -1.248   0.318   0.446  1.00  0.00     0.016 C 
ATOM      8  C   UNL     1       0.701  -0.988  -0.152  1.00  0.00     0.185 C 
ATOM      9  O   UNL     1       1.368  -0.574   0.789  1.00  0.00    -0.289 OA
ENDROOT
BRANCH   1  10
ATOM     10  C   UNL     1       3.276  -0.426  -1.662  1.00  0.00    -0.021 A 
ATOM     11  C   UNL     1       4.840   0.882  -0.345  1.00  0.00     0.161 A 
ATOM     12  C   UNL     1       4.913   1.802  -1.397  1.00  0.00     0.157 A 
ATOM     13  C   UNL     1       4.028  -0.243  -0.492  1.00  0.00     0.058 A 
ATOM     14  C   UNL     1       4.189   1.629  -2.569  1.00  0.00     0.051 A 
ATOM     15  C   UNL     1       3.365   0.512  -2.700  1.00  0.00     0.012 A 
BRANCH  11  16
ATOM     16  O   UNL     1       5.605   1.190   0.751  1.00  0.00    -0.493 OA
ATOM     17  C   UNL     1       5.394   0.384   1.907  1.00  0.00     0.278 C 
ENDBRANCH  11  16
BRANCH  12  18
ATOM     18  O   UNL     1       5.709   2.910  -1.286  1.00  0.00    -0.504 OA
ATOM     19  H   UNL     1       6.107   2.841  -0.396  1.00  0.00     0.293 HD
ENDBRANCH  12  18
ENDBRANCH   1  10
BRANCH   7  20
ATOM     20  C   UNL     1      -2.649   0.750   0.470  1.00  0.00    -0.021 A 
ATOM     21  C   UNL     1      -3.363   0.688   1.678  1.00  0.00     0.058 A 
ATOM     22  C   UNL     1      -3.269   1.248  -0.684  1.00  0.00     0.012 A 
ATOM     23  C   UNL     1      -4.695   1.100   1.727  1.00  0.00     0.161 A 
ATOM     24  C   UNL     1      -4.600   1.661  -0.641  1.00  0.00     0.051 A 
ATOM     25  C   UNL     1      -5.296   1.581   0.558  1.00  0.00     0.157 A 
BRANCH  23  26
ATOM     26  O   UNL     1      -5.508   1.085   2.832  1.00  0.00    -0.493 OA
ATOM     27  C   UNL     1      -4.928   0.604   4.041  1.00  0.00     0.278 C 
ENDBRANCH  23  26
BRANCH  25  28
ATOM     28  O   UNL     1      -6.602   1.991   0.575  1.00  0.00    -0.504 OA
ATOM     29  H   UNL     1      -6.895   1.859   1.498  1.00  0.00     0.293 HD
ENDBRANCH  25  28
ENDBRANCH   7  20
TORSDOF 6
