REMARK SMILES CCC1(C2=CCCCC2)C(=O)NC(=O)NC1=O
REMARK SMILES IDX 3 1 10 2 11 3 12 4 13 5 14 6 15 7 16 8 17 9 2 12 1 13 4 14
REMARK SMILES IDX 5 15 9 16 6 17 8 18 7 19
REMARK H PARENT 12 10 15 11
ROOT
ATOM      1  C   UNL     1      -0.843  -0.374   0.276  1.00  0.00     0.149 C 
ATOM      2  C   UNL     1      -1.460   0.426   1.431  1.00  0.00     0.247 C 
ATOM      3  O   UNL     1      -1.230   0.200   2.620  1.00  0.00    -0.273 OA
ATOM      4  N   UNL     1      -2.265   1.480   1.093  1.00  0.00    -0.277 N 
ATOM      5  C   UNL     1      -2.728   1.775  -0.149  1.00  0.00     0.328 C 
ATOM      6  O   UNL     1      -3.604   2.616  -0.321  1.00  0.00    -0.248 OA
ATOM      7  N   UNL     1      -2.232   1.047  -1.181  1.00  0.00    -0.277 N 
ATOM      8  C   UNL     1      -1.626  -0.168  -1.024  1.00  0.00     0.247 C 
ATOM      9  O   UNL     1      -1.702  -1.005  -1.923  1.00  0.00    -0.273 OA
ATOM     10  H   UNL     1      -2.677   1.994   1.860  1.00  0.00     0.174 HD
ATOM     11  H   UNL     1      -2.726   1.172  -2.054  1.00  0.00     0.174 HD
ENDROOT
BRANCH   1  12
ATOM     12  C   UNL     1      -0.848  -1.878   0.675  1.00  0.00     0.028 C 
ATOM     13  C   UNL     1      -2.229  -2.443   1.009  1.00  0.00     0.006 C 
ENDBRANCH   1  12
BRANCH   1  14
ATOM     14  C   UNL     1       0.611   0.114  -0.017  1.00  0.00    -0.049 C 
ATOM     15  C   UNL     1       1.136   1.268   0.453  1.00  0.00    -0.026 C 
ATOM     16  C   UNL     1       1.465  -0.789  -0.899  1.00  0.00     0.032 C 
ATOM     17  C   UNL     1       2.543   1.738   0.202  1.00  0.00     0.027 C 
ATOM     18  C   UNL     1       2.715  -0.115  -1.472  1.00  0.00     0.005 C 
ATOM     19  C   UNL     1       3.449   0.666  -0.394  1.00  0.00     0.004 C 
ENDBRANCH   1  14
TORSDOF 2
