REMARK SMILES NS(=O)(=O)c1cc2c(cc1Cl)NC(CC1CCCC1)NS2(=O)=O
REMARK SMILES IDX 5 1 6 2 7 3 8 4 12 5 13 6 20 7 21 8 22 9 23 10 9 11 10 12
REMARK SMILES IDX 11 13 2 16 3 17 4 18 1 19 14 22 15 23 16 24 19 25 17 26
REMARK SMILES IDX 18 27
REMARK H PARENT 12 14 20 15 1 20 1 21
ROOT
ATOM      1  C   UNL     1       4.027   0.516  -0.424  1.00  0.00     0.102 A 
ATOM      2  C   UNL     1       3.063  -0.439  -0.766  1.00  0.00     0.047 A 
ATOM      3  C   UNL     1       1.852  -0.479  -0.063  1.00  0.00     0.107 A 
ATOM      4  C   UNL     1       1.555   0.419   0.961  1.00  0.00     0.057 A 
ATOM      5  N   UNL     1       0.401   0.353   1.737  1.00  0.00    -0.368 N 
ATOM      6  C   UNL     1      -0.779  -0.334   1.246  1.00  0.00     0.162 C 
ATOM      7  N   UNL     1      -0.413  -1.645   0.775  1.00  0.00    -0.190 NA
ATOM      8  S   UNL     1       0.681  -1.720  -0.479  1.00  0.00     0.244 S 
ATOM      9  O   UNL     1       0.031  -1.308  -1.701  1.00  0.00    -0.207 OA
ATOM     10  O   UNL     1       1.340  -3.001  -0.353  1.00  0.00    -0.207 OA
ATOM     11  C   UNL     1       2.555   1.340   1.310  1.00  0.00     0.049 A 
ATOM     12  C   UNL     1       3.778   1.405   0.621  1.00  0.00     0.063 A 
ATOM     13  Cl  UNL     1       4.915   2.580   1.178  1.00  0.00    -0.083 Cl
ATOM     14  H   UNL     1       0.169   1.235   2.190  1.00  0.00     0.162 HD
ATOM     15  H   UNL     1      -0.164  -2.304   1.509  1.00  0.00     0.143 HD
ENDROOT
BRANCH   1  16
ATOM     16  S   UNL     1       5.527   0.570  -1.362  1.00  0.00     0.239 S 
ATOM     17  O   UNL     1       5.526  -0.551  -2.273  1.00  0.00    -0.207 OA
ATOM     18  O   UNL     1       5.725   1.924  -1.821  1.00  0.00    -0.207 OA
BRANCH  16  19
ATOM     19  N   UNL     1       6.721   0.257  -0.219  1.00  0.00    -0.225 NA
ATOM     20  H   UNL     1       7.306   1.089  -0.112  1.00  0.00     0.137 HD
ATOM     21  H   UNL     1       6.372  -0.081   0.675  1.00  0.00     0.137 HD
ENDBRANCH  16  19
ENDBRANCH   1  16
BRANCH   6  22
ATOM     22  C   UNL     1      -1.565   0.521   0.244  1.00  0.00     0.045 C 
BRANCH  22  23
ATOM     23  C   UNL     1      -2.858  -0.134  -0.254  1.00  0.00    -0.008 C 
ATOM     24  C   UNL     1      -3.624   0.758  -1.229  1.00  0.00     0.004 C 
ATOM     25  C   UNL     1      -3.898  -0.387   0.837  1.00  0.00     0.004 C 
ATOM     26  C   UNL     1      -5.008   0.123  -1.282  1.00  0.00     0.000 C 
ATOM     27  C   UNL     1      -5.224  -0.515   0.089  1.00  0.00     0.000 C 
ENDBRANCH  22  23
ENDBRANCH   6  22
TORSDOF 4
