REMARK SMILES OC(CCN1CCCCC1)(c1ccccc1)C1CCCC1
REMARK SMILES IDX 2 1 1 2 3 4 4 5 5 6 6 7 10 8 7 9 9 10 8 11 17 12 18 13 21 14
REMARK SMILES IDX 19 15 20 16 11 17 12 18 16 19 13 20 15 21 14 22
REMARK H PARENT 1 3
ROOT
ATOM      1  C   UNL     1      -0.968   0.681   0.114  1.00  0.00     0.094 C 
ENDROOT
BRANCH   1   2
ATOM      2  O   UNL     1      -0.142   1.311   1.110  1.00  0.00    -0.385 OA
ATOM      3  H   UNL     1       0.678   0.779   1.176  1.00  0.00     0.211 HD
ENDBRANCH   1   2
BRANCH   1   4
ATOM      4  C   UNL     1      -0.043   0.166  -1.030  1.00  0.00     0.056 C 
BRANCH   4   5
ATOM      5  C   UNL     1       1.080  -0.812  -0.642  1.00  0.00     0.088 C 
BRANCH   5   6
ATOM      6  N   UNL     1       2.039  -0.289   0.348  1.00  0.00    -0.303 NA
ATOM      7  C   UNL     1       2.865  -1.378   0.915  1.00  0.00     0.084 C 
ATOM      8  C   UNL     1       2.875   0.809  -0.168  1.00  0.00     0.084 C 
ATOM      9  C   UNL     1       4.369  -1.288   0.630  1.00  0.00     0.016 C 
ATOM     10  C   UNL     1       3.913   0.374  -1.207  1.00  0.00     0.016 C 
ATOM     11  C   UNL     1       4.625  -0.923  -0.825  1.00  0.00     0.003 C 
ENDBRANCH   5   6
ENDBRANCH   4   5
ENDBRANCH   1   4
BRANCH   1  12
ATOM     12  C   UNL     1      -1.834  -0.390   0.847  1.00  0.00     0.025 C 
ATOM     13  C   UNL     1      -2.519  -1.449  -0.024  1.00  0.00     0.007 C 
ATOM     14  C   UNL     1      -1.148  -1.198   1.968  1.00  0.00     0.007 C 
ATOM     15  C   UNL     1      -2.943  -2.503   0.987  1.00  0.00     0.000 C 
ATOM     16  C   UNL     1      -1.740  -2.606   1.909  1.00  0.00     0.000 C 
ENDBRANCH   1  12
BRANCH   1  17
ATOM     17  C   UNL     1      -1.913   1.772  -0.442  1.00  0.00    -0.016 A 
ATOM     18  C   UNL     1      -2.106   2.983   0.249  1.00  0.00     0.007 A 
ATOM     19  C   UNL     1      -2.639   1.586  -1.633  1.00  0.00     0.007 A 
ATOM     20  C   UNL     1      -2.970   3.969  -0.235  1.00  0.00     0.000 A 
ATOM     21  C   UNL     1      -3.505   2.572  -2.118  1.00  0.00     0.000 A 
ATOM     22  C   UNL     1      -3.668   3.764  -1.420  1.00  0.00     0.000 A 
ENDBRANCH   1  17
TORSDOF 6
