REMARK SMILES Cc1c2oc3c(C)ccc(C(=O)N[C@@H]4C(=O)N[C@H](C(C)C)C(=O)N5CCC[C@H]5C(=O)N(C)CC(=O)N(C)[C@@H](C(C)C)C(=O)O[C@@H]4C)c3nc-2c(C(=O)N[C@@H]2C(=O)N[C@H](C(C)C)C(=O)N3CCC[C@H]3C(=O)N(C)CC(=O)N(C)[C@@H](C(C)C)C(=O)O[C@@H]2C)c(N)c1=O
REMARK SMILES IDX 10 1 47 2 48 3 49 4 3 5 4 6 5 7 6 8 7 9 8 10 9 11 2 12 1 13
REMARK SMILES IDX 89 14 90 15 87 16 50 17 11 18 13 19 12 20 14 22 15 23 17 24
REMARK SMILES IDX 16 25 18 27 19 28 20 29 21 30 22 31 23 32 24 33 25 34 28 35
REMARK SMILES IDX 26 36 27 37 29 38 30 39 31 40 32 41 33 42 45 44 46 45 44 46
REMARK SMILES IDX 42 47 43 48 38 49 39 50 40 51 41 52 36 53 37 54 34 55 35 56
REMARK SMILES IDX 51 58 52 59 53 60 54 62 85 63 86 64 84 65 82 66 83 67 78 68
REMARK SMILES IDX 79 69 80 70 81 71 76 72 77 73 74 74 75 75 55 77 57 78 56 79
REMARK SMILES IDX 58 81 62 82 63 83 64 84 65 85 68 86 66 87 67 88 69 89 70 90
REMARK SMILES IDX 71 91 72 92 73 93 59 95 60 96 61 97 88 98
REMARK H PARENT 13 21 17 26 53 61 57 80 88 99 88 100
REMARK Flexibility Score:  318.800
ROOT
ATOM      1  C   UNL     1      -0.261   3.020  -0.255  1.00  0.00     0.069 A 
ATOM      2  C   UNL     1      -0.234   3.081   1.145  1.00  0.00     0.119 A 
ATOM      3  N   UNL     1      -0.192   1.908   1.931  1.00  0.00    -0.239 NA
ATOM      4  C   UNL     1      -0.164   2.033   3.224  1.00  0.00     0.122 C 
ATOM      5  C   UNL     1      -0.052   3.362   3.883  1.00  0.00     0.160 C 
ATOM      6  O   UNL     1      -0.226   4.503   3.112  1.00  0.00    -0.452 OA
ATOM      7  C   UNL     1      -0.331   4.348   1.748  1.00  0.00     0.156 A 
ATOM      8  C   UNL     1      -0.511   5.525   0.998  1.00  0.00    -0.006 A 
ATOM      9  C   UNL     1      -0.617   6.866   1.668  1.00  0.00     0.048 C 
ATOM     10  C   UNL     1      -0.615   5.425  -0.388  1.00  0.00     0.008 A 
ATOM     11  C   UNL     1      -0.486   4.185  -1.009  1.00  0.00     0.016 A 
ATOM     12  C   UNL     1       0.228   3.475   5.186  1.00  0.00     0.044 C 
ATOM     13  C   UNL     1       0.408   4.780   5.904  1.00  0.00     0.053 C 
ATOM     14  C   UNL     1       0.392   2.260   6.013  1.00  0.00     0.209 C 
ATOM     15  O   UNL     1       0.674   2.351   7.211  1.00  0.00    -0.287 OA
ATOM     16  C   UNL     1       0.105   0.915   5.408  1.00  0.00     0.095 C 
ATOM     17  C   UNL     1      -0.249   0.835   4.108  1.00  0.00     0.096 C 
ENDROOT
BRANCH   1  18
ATOM     18  C   UNL     1       0.045   1.795  -1.042  1.00  0.00     0.254 C 
ATOM     19  N   UNL     1       0.875   0.857  -0.471  1.00  0.00    -0.337 N 
ATOM     20  O   UNL     1      -0.325   1.705  -2.212  1.00  0.00    -0.269 OA
ATOM     21  H   UNL     1       1.038   0.891   0.531  1.00  0.00     0.164 HD
BRANCH  19  22
ATOM     22  C   UNL     1       1.446  -0.242  -1.270  1.00  0.00     0.212 C 
BRANCH  22  23
ATOM     23  C   UNL     1       2.154  -1.226  -0.315  1.00  0.00     0.247 C 
ATOM     24  N   UNL     1       3.098  -0.677   0.528  1.00  0.00    -0.342 N 
ATOM     25  O   UNL     1       1.864  -2.417  -0.282  1.00  0.00    -0.273 OA
ATOM     26  H   UNL     1       3.499   0.215   0.263  1.00  0.00     0.164 HD
BRANCH  24  27
ATOM     27  C   UNL     1       3.949  -1.501   1.411  1.00  0.00     0.174 C 
BRANCH  27  28
ATOM     28  C   UNL     1       3.361  -1.558   2.845  1.00  0.00     0.015 C 
ATOM     29  C   UNL     1       2.107  -2.442   2.876  1.00  0.00     0.010 C 
ATOM     30  C   UNL     1       4.344  -2.086   3.894  1.00  0.00     0.010 C 
ENDBRANCH  27  28
BRANCH  27  31
ATOM     31  C   UNL     1       5.398  -0.943   1.376  1.00  0.00     0.246 C 
ATOM     32  O   UNL     1       6.372  -1.524   1.846  1.00  0.00    -0.272 OA
BRANCH  31  33
ATOM     33  N   UNL     1       5.492   0.383   0.868  1.00  0.00    -0.329 N 
ATOM     34  C   UNL     1       5.640   1.351   1.939  1.00  0.00     0.120 C 
ATOM     35  C   UNL     1       6.643   0.623  -0.022  1.00  0.00     0.174 C 
ATOM     36  C   UNL     1       7.139   1.406   2.222  1.00  0.00     0.024 C 
ATOM     37  C   UNL     1       7.802   0.985   0.907  1.00  0.00     0.037 C 
BRANCH  35  38
ATOM     38  C   UNL     1       6.945  -0.451  -1.110  1.00  0.00     0.245 C 
ATOM     39  O   UNL     1       6.421  -1.568  -1.069  1.00  0.00    -0.272 OA
BRANCH  38  40
ATOM     40  N   UNL     1       7.783  -0.107  -2.176  1.00  0.00    -0.335 N 
ATOM     41  C   UNL     1       8.623   1.079  -2.201  1.00  0.00     0.147 C 
BRANCH  40  42
ATOM     42  C   UNL     1       8.150  -1.196  -3.094  1.00  0.00     0.219 CG1
ATOM     43  G   UNL     1       7.051  -1.835  -3.985  1.00  0.00     0.000 G1
ENDBRANCH  40  42
ENDBRANCH  38  40
ENDBRANCH  35  38
ENDBRANCH  31  33
ENDBRANCH  27  31
ENDBRANCH  24  27
ENDBRANCH  22  23
BRANCH  22  44
ATOM     44  C   UNL     1       2.313   0.266  -2.461  1.00  0.00     0.205 C 
ATOM     45  C   UNL     1       3.052   1.591  -2.206  1.00  0.00     0.056 C 
BRANCH  44  46
ATOM     46  O   UNL     1       3.350  -0.661  -2.849  1.00  0.00    -0.458 OA
BRANCH  46  47
ATOM     47  C   UNL     1       3.267  -1.248  -4.078  1.00  0.00     0.329 C 
ATOM     48  O   UNL     1       2.276  -1.224  -4.801  1.00  0.00    -0.250 OA
BRANCH  47  49
ATOM     49  C   UNL     1       4.584  -1.987  -4.454  1.00  0.00     0.197 C 
BRANCH  49  50
ATOM     50  C   UNL     1       4.499  -3.469  -3.966  1.00  0.00     0.017 C 
ATOM     51  C   UNL     1       3.834  -3.661  -2.599  1.00  0.00     0.010 C 
ATOM     52  C   UNL     1       3.782  -4.326  -5.016  1.00  0.00     0.010 C 
ENDBRANCH  49  50
BRANCH  49  53
ATOM     53  N   UNL     1       5.799  -1.225  -4.022  1.00  0.00    -0.330 N 
ATOM     54  C   UNL     1       5.795   0.205  -4.321  1.00  0.00     0.147 C 
BRANCH  53  55
ATOM     55  C   UNL     1       7.051  -1.835  -3.985  1.00  0.00     0.242 CG1
ATOM     56  O   UNL     1       7.320  -2.831  -4.659  1.00  0.00    -0.273 OA
ATOM     57  G   UNL     1       8.150  -1.196  -3.094  1.00  0.00     0.000 G1
ENDBRANCH  53  55
ENDBRANCH  49  53
ENDBRANCH  47  49
ENDBRANCH  46  47
ENDBRANCH  44  46
ENDBRANCH  22  44
ENDBRANCH  19  22
ENDBRANCH   1  18
BRANCH  17  58
ATOM     58  C   UNL     1      -0.817  -0.468   3.617  1.00  0.00     0.256 C 
ATOM     59  O   UNL     1      -0.664  -1.520   4.234  1.00  0.00    -0.269 OA
ATOM     60  N   UNL     1      -1.612  -0.394   2.507  1.00  0.00    -0.337 N 
ATOM     61  H   UNL     1      -1.661   0.463   1.960  1.00  0.00     0.164 HD
BRANCH  60  62
ATOM     62  C   UNL     1      -2.405  -1.522   2.011  1.00  0.00     0.212 C 
BRANCH  62  63
ATOM     63  C   UNL     1      -3.758  -1.710   2.761  1.00  0.00     0.205 C 
ATOM     64  C   UNL     1      -3.577  -2.082   4.237  1.00  0.00     0.056 C 
BRANCH  63  65
ATOM     65  O   UNL     1      -4.516  -0.480   2.642  1.00  0.00    -0.458 OA
BRANCH  65  66
ATOM     66  C   UNL     1      -5.855  -0.529   2.920  1.00  0.00     0.329 C 
ATOM     67  O   UNL     1      -6.405  -1.464   3.483  1.00  0.00    -0.250 OA
BRANCH  66  68
ATOM     68  C   UNL     1      -6.514   0.841   2.627  1.00  0.00     0.197 C 
BRANCH  68  69
ATOM     69  C   UNL     1      -8.064   0.903   2.694  1.00  0.00     0.017 C 
ATOM     70  C   UNL     1      -8.800  -0.090   1.796  1.00  0.00     0.010 C 
ATOM     71  C   UNL     1      -8.559   0.753   4.143  1.00  0.00     0.010 C 
ENDBRANCH  68  69
BRANCH  68  72
ATOM     72  N   UNL     1      -5.961   1.569   1.456  1.00  0.00    -0.330 N 
ATOM     73  C   UNL     1      -5.509   2.931   1.690  1.00  0.00     0.147 C 
BRANCH  72  74
ATOM     74  C   UNL     1      -5.881   0.920   0.219  1.00  0.00     0.242 CG0
ATOM     75  O   UNL     1      -6.304  -0.231   0.076  1.00  0.00    -0.273 OA
ATOM     76  G   UNL     1      -5.277   1.719  -0.959  1.00  0.00     0.000 G0
ENDBRANCH  72  74
ENDBRANCH  68  72
ENDBRANCH  66  68
ENDBRANCH  65  66
ENDBRANCH  63  65
ENDBRANCH  62  63
BRANCH  62  77
ATOM     77  C   UNL     1      -2.749  -1.247   0.539  1.00  0.00     0.247 C 
ATOM     78  N   UNL     1      -3.046  -2.382  -0.188  1.00  0.00    -0.342 N 
ATOM     79  O   UNL     1      -2.844  -0.104   0.093  1.00  0.00    -0.273 OA
ATOM     80  H   UNL     1      -2.393  -3.148  -0.069  1.00  0.00     0.164 HD
BRANCH  78  81
ATOM     81  C   UNL     1      -3.672  -2.266  -1.504  1.00  0.00     0.174 C 
BRANCH  81  82
ATOM     82  C   UNL     1      -2.662  -1.865  -2.600  1.00  0.00     0.246 C 
ATOM     83  O   UNL     1      -1.506  -2.283  -2.624  1.00  0.00    -0.272 OA
BRANCH  82  84
ATOM     84  N   UNL     1      -3.249  -1.112  -3.635  1.00  0.00    -0.329 N 
ATOM     85  C   UNL     1      -2.992  -1.602  -4.985  1.00  0.00     0.120 C 
ATOM     86  C   UNL     1      -2.900   0.322  -3.602  1.00  0.00     0.174 C 
ATOM     87  C   UNL     1      -2.353  -0.458  -5.760  1.00  0.00     0.024 C 
ATOM     88  C   UNL     1      -2.921   0.763  -5.068  1.00  0.00     0.037 C 
BRANCH  86  89
ATOM     89  C   UNL     1      -3.680   1.339  -2.731  1.00  0.00     0.245 C 
ATOM     90  O   UNL     1      -3.271   2.499  -2.602  1.00  0.00    -0.272 OA
BRANCH  89  91
ATOM     91  N   UNL     1      -4.876   0.949  -2.140  1.00  0.00    -0.335 N 
ATOM     92  C   UNL     1      -5.937   0.351  -2.933  1.00  0.00     0.147 C 
BRANCH  91  93
ATOM     93  C   UNL     1      -5.277   1.719  -0.959  1.00  0.00     0.219 CG0
ATOM     94  G   UNL     1      -5.881   0.920   0.219  1.00  0.00     0.000 G0
ENDBRANCH  91  93
ENDBRANCH  89  91
ENDBRANCH  86  89
ENDBRANCH  82  84
ENDBRANCH  81  82
BRANCH  81  95
ATOM     95  C   UNL     1      -4.394  -3.568  -1.943  1.00  0.00     0.015 C 
ATOM     96  C   UNL     1      -5.818  -3.623  -1.382  1.00  0.00     0.010 C 
ATOM     97  C   UNL     1      -3.634  -4.848  -1.572  1.00  0.00     0.010 C 
ENDBRANCH  81  95
ENDBRANCH  78  81
ENDBRANCH  62  77
ENDBRANCH  60  62
ENDBRANCH  17  58
BRANCH  16  98
ATOM     98  N   UNL     1       0.187  -0.137   6.310  1.00  0.00    -0.395 N 
ATOM     99  H   UNL     1       0.032   0.138   7.280  1.00  0.00     0.156 HD
ATOM    100  H   UNL     1      -0.265  -1.006   6.009  1.00  0.00     0.156 HD
ENDBRANCH  16  98
TORSDOF 9
