REMARK SMILES Cc1ccccc1N1CCN(CCc2nnc3n2CCCC3)CC1
REMARK SMILES IDX 8 1 9 2 10 3 11 4 23 5 24 6 7 7 2 8 3 9 6 10 4 11 5 12 1 13
REMARK SMILES IDX 12 14 13 15 14 16 15 17 18 18 16 19 19 20 17 21 20 22 22 23
REMARK SMILES IDX 21 24
REMARK H PARENT
ROOT
ATOM      1  N   UNL     1      -2.560  -0.412  -0.064  1.00  0.00    -0.369 N 
ATOM      2  C   UNL     1      -1.959   0.898  -0.407  1.00  0.00     0.132 C 
ATOM      3  C   UNL     1      -0.471   0.988   0.014  1.00  0.00     0.106 C 
ATOM      4  N   UNL     1       0.400  -0.118  -0.449  1.00  0.00    -0.299 NA
ATOM      5  C   UNL     1      -0.354  -1.395  -0.520  1.00  0.00     0.106 C 
ATOM      6  C   UNL     1      -1.604  -1.437   0.387  1.00  0.00     0.132 C 
ENDROOT
BRANCH   1   7
ATOM      7  C   UNL     1      -3.826  -0.349   0.530  1.00  0.00     0.040 A 
ATOM      8  C   UNL     1      -4.949   0.108  -0.202  1.00  0.00    -0.028 A 
ATOM      9  C   UNL     1      -6.206   0.212   0.425  1.00  0.00     0.005 A 
ATOM     10  C   UNL     1      -4.033  -0.730   1.867  1.00  0.00     0.026 A 
ATOM     11  C   UNL     1      -6.375  -0.160   1.755  1.00  0.00     0.000 A 
ATOM     12  C   UNL     1      -5.289  -0.637   2.475  1.00  0.00     0.002 A 
ATOM     13  C   UNL     1      -4.852   0.494  -1.654  1.00  0.00     0.046 C 
ENDBRANCH   1   7
BRANCH   4  14
ATOM     14  C   UNL     1       1.076   0.157  -1.724  1.00  0.00     0.092 C 
BRANCH  14  15
ATOM     15  C   UNL     1       2.048   1.351  -1.757  1.00  0.00     0.093 C 
BRANCH  15  16
ATOM     16  C   UNL     1       2.896   1.532  -0.545  1.00  0.00     0.134 A 
ATOM     17  N   UNL     1       2.957   2.630   0.186  1.00  0.00    -0.135 NA
ATOM     18  N   UNL     1       3.763   0.617  -0.014  1.00  0.00    -0.315 N 
ATOM     19  N   UNL     1       3.855   2.426   1.207  1.00  0.00    -0.135 NA
ATOM     20  C   UNL     1       4.039  -0.736  -0.439  1.00  0.00     0.125 C 
ATOM     21  C   UNL     1       4.331   1.209   1.083  1.00  0.00     0.132 A 
ATOM     22  C   UNL     1       5.322  -1.292   0.182  1.00  0.00     0.022 C 
ATOM     23  C   UNL     1       5.358   0.536   1.919  1.00  0.00     0.077 C 
ATOM     24  C   UNL     1       5.382  -0.975   1.679  1.00  0.00     0.010 C 
ENDBRANCH  15  16
ENDBRANCH  14  15
ENDBRANCH   4  14
TORSDOF 4
