REMARK SMILES CN(C)[C@@H](CCOc1cccc2ccccc12)c1ccccc1
REMARK SMILES IDX 5 1 4 2 2 3 1 4 3 5 18 6 19 7 23 8 20 9 22 10 21 11 6 12
REMARK SMILES IDX 7 13 8 14 9 15 17 16 10 17 12 18 16 19 11 20 13 21 15 22
REMARK SMILES IDX 14 23
REMARK H PARENT
ROOT
ATOM      1  C   UNL     1      -0.512   1.105  -0.308  1.00  0.00     0.065 C 
ENDROOT
BRANCH   1   2
ATOM      2  C   UNL     1      -2.019   1.070   0.044  1.00  0.00     0.089 C 
BRANCH   2   3
ATOM      3  N   UNL     1      -2.380   1.718   1.329  1.00  0.00    -0.302 NA
ATOM      4  C   UNL     1      -1.707   1.154   2.499  1.00  0.00     0.105 C 
ATOM      5  C   UNL     1      -2.206   3.169   1.295  1.00  0.00     0.105 C 
ENDBRANCH   2   3
BRANCH   2   6
ATOM      6  C   UNL     1      -2.661  -0.320  -0.051  1.00  0.00    -0.031 A 
ATOM      7  C   UNL     1      -4.013  -0.420  -0.430  1.00  0.00     0.005 A 
ATOM      8  C   UNL     1      -1.968  -1.506   0.243  1.00  0.00     0.005 A 
ATOM      9  C   UNL     1      -4.641  -1.662  -0.534  1.00  0.00     0.000 A 
ATOM     10  C   UNL     1      -2.597  -2.749   0.131  1.00  0.00     0.000 A 
ATOM     11  C   UNL     1      -3.933  -2.828  -0.255  1.00  0.00     0.000 A 
ENDBRANCH   2   6
ENDBRANCH   1   2
BRANCH   1  12
ATOM     12  C   UNL     1      -0.246   0.677  -1.757  1.00  0.00     0.231 C 
BRANCH  12  13
ATOM     13  O   UNL     1       1.153   0.753  -2.070  1.00  0.00    -0.493 OA
BRANCH  13  14
ATOM     14  C   UNL     1       1.903  -0.273  -1.544  1.00  0.00     0.127 A 
ATOM     15  C   UNL     1       1.609  -1.608  -1.849  1.00  0.00     0.047 A 
ATOM     16  C   UNL     1       3.022   0.061  -0.741  1.00  0.00     0.024 A 
ATOM     17  C   UNL     1       2.390  -2.629  -1.316  1.00  0.00     0.004 A 
ATOM     18  C   UNL     1       3.812  -0.986  -0.208  1.00  0.00    -0.015 A 
ATOM     19  C   UNL     1       3.384   1.393  -0.441  1.00  0.00     0.012 A 
ATOM     20  C   UNL     1       3.480  -2.321  -0.497  1.00  0.00     0.009 A 
ATOM     21  C   UNL     1       4.923  -0.677   0.598  1.00  0.00     0.009 A 
ATOM     22  C   UNL     1       4.489   1.682   0.360  1.00  0.00     0.001 A 
ATOM     23  C   UNL     1       5.259   0.648   0.881  1.00  0.00     0.001 A 
ENDBRANCH  13  14
ENDBRANCH  12  13
ENDBRANCH   1  12
TORSDOF 6
