REMARK SMILES CC[C@H]1OC(=O)[C@H](C)[C@@H](O[C@H]2C[C@@](C)(OC)[C@@H](O)[C@H](C)O2)[C@H](C)[C@@H](O[C@@H]2O[C@H](C)C[C@H](N(C)C)[C@H]2O)[C@](C)(O)C[C@@H](C)C(=O)[C@H](C)[C@H]2OC(=O)O[C@@]21C
REMARK SMILES IDX 7 1 8 2 5 3 6 4 4 5 3 6 2 7 1 8 52 9 51 10 47 11 49 12 48 13
REMARK SMILES IDX 50 14 53 15 45 16 46 17 9 19 10 20 11 21 12 22 21 23 13 24
REMARK SMILES IDX 19 25 17 26 14 27 20 28 15 29 16 30 18 31 22 33 23 34 24 35
REMARK SMILES IDX 25 36 26 37 27 38 35 39 28 40 31 41 30 42 29 43 36 44 32 46
REMARK SMILES IDX 33 47 34 48 37 49 38 50 39 51 40 53 41 54 42 55 43 56 44 57
REMARK H PARENT 18 32 36 45 39 52
REMARK Flexibility Score:  124.900
ROOT
ATOM      1  C   UNL     1      -0.899   0.130  -1.901  1.00  0.00     0.125 C 
ATOM      2  C   UNL     1       0.047   0.133  -3.097  1.00  0.00     0.023 C 
ENDROOT
BRANCH   1   3
ATOM      3  C   UNL     1      -1.654  -1.186  -1.794  1.00  0.00     0.311 C 
ATOM      4  O   UNL     1      -1.281  -2.240  -2.285  1.00  0.00    -0.252 OA
BRANCH   3   5
ATOM      5  O   UNL     1      -2.807  -1.032  -1.094  1.00  0.00    -0.458 OA
BRANCH   5   6
ATOM      6  C   UNL     1      -3.740  -2.146  -1.020  1.00  0.00     0.224 C 
BRANCH   6   7
ATOM      7  C   UNL     1      -5.122  -1.588  -1.410  1.00  0.00     0.046 C 
ATOM      8  C   UNL     1      -5.121  -0.951  -2.796  1.00  0.00     0.008 C 
ENDBRANCH   6   7
BRANCH   6   9
ATOM      9  C   UNL     1      -3.722  -2.790   0.420  1.00  0.00     0.187 C 
ATOM     10  O   UNL     1      -4.964  -3.452   0.674  1.00  0.00    -0.420 OA
ATOM     11  C   UNL     1      -2.720  -3.959   0.477  1.00  0.00     0.238 C 
ATOM     12  C   UNL     1      -4.834  -4.764   0.336  1.00  0.00     0.509 C 
ATOM     13  O   UNL     1      -3.527  -5.102   0.173  1.00  0.00    -0.426 OA
ATOM     14  O   UNL     1      -5.775  -5.527   0.180  1.00  0.00    -0.203 OA
ATOM     15  C   UNL     1      -3.558  -1.705   1.488  1.00  0.00     0.065 C 
BRANCH  11  16
ATOM     16  C   UNL     1      -1.913  -4.175   1.780  1.00  0.00     0.099 CG0
ATOM     17  C   UNL     1      -2.767  -4.786   2.902  1.00  0.00     0.020 C 
ATOM     18  G   UNL     1      -0.610  -5.016   1.635  1.00  0.00     0.000 G0
ENDBRANCH  11  16
ENDBRANCH   6   9
ENDBRANCH   5   6
ENDBRANCH   3   5
ENDBRANCH   1   3
BRANCH   1  19
ATOM     19  C   UNL     1      -0.246   0.583  -0.572  1.00  0.00     0.141 C 
BRANCH  19  20
ATOM     20  O   UNL     1      -1.327   1.188   0.168  1.00  0.00    -0.348 OA
BRANCH  20  21
ATOM     21  C   UNL     1      -1.330   2.613   0.183  1.00  0.00     0.253 C 
ATOM     22  C   UNL     1      -2.740   3.087  -0.196  1.00  0.00     0.100 C 
ATOM     23  O   UNL     1      -0.979   3.049   1.484  1.00  0.00    -0.347 OA
ATOM     24  C   UNL     1      -3.006   4.553   0.208  1.00  0.00     0.098 C 
ATOM     25  C   UNL     1      -0.888   4.472   1.619  1.00  0.00     0.150 C 
ATOM     26  C   UNL     1      -1.649   5.253   0.524  1.00  0.00     0.175 C 
ATOM     27  C   UNL     1      -3.714   5.310  -0.932  1.00  0.00     0.045 C 
ATOM     28  C   UNL     1       0.595   4.838   1.643  1.00  0.00     0.041 C 
BRANCH  24  29
ATOM     29  O   UNL     1      -3.778   4.568   1.426  1.00  0.00    -0.376 OA
ATOM     30  C   UNL     1      -5.172   4.360   1.323  1.00  0.00     0.195 C 
ENDBRANCH  24  29
BRANCH  26  31
ATOM     31  O   UNL     1      -1.854   6.622   0.907  1.00  0.00    -0.387 OA
ATOM     32  H   UNL     1      -0.991   7.020   1.115  1.00  0.00     0.211 HD
ENDBRANCH  26  31
ENDBRANCH  20  21
ENDBRANCH  19  20
BRANCH  19  33
ATOM     33  C   UNL     1       0.399  -0.467   0.393  1.00  0.00     0.048 C 
ATOM     34  C   UNL     1       0.867   0.297   1.662  1.00  0.00     0.013 C 
BRANCH  33  35
ATOM     35  C   UNL     1       1.570  -1.298  -0.231  1.00  0.00     0.158 C 
BRANCH  35  36
ATOM     36  O   UNL     1       2.796  -0.570  -0.061  1.00  0.00    -0.343 OA
BRANCH  36  37
ATOM     37  C   UNL     1       3.477  -0.244  -1.273  1.00  0.00     0.280 C 
ATOM     38  O   UNL     1       4.693  -0.981  -1.360  1.00  0.00    -0.347 OA
ATOM     39  C   UNL     1       3.703   1.286  -1.394  1.00  0.00     0.188 C 
ATOM     40  C   UNL     1       5.682  -0.641  -0.386  1.00  0.00     0.120 C 
ATOM     41  C   UNL     1       5.083   1.753  -0.831  1.00  0.00     0.092 C 
ATOM     42  C   UNL     1       5.508   0.745   0.254  1.00  0.00     0.054 C 
ATOM     43  C   UNL     1       5.789  -1.735   0.665  1.00  0.00     0.039 C 
BRANCH  39  44
ATOM     44  O   UNL     1       3.596   1.652  -2.796  1.00  0.00    -0.386 OA
ATOM     45  H   UNL     1       4.424   1.347  -3.208  1.00  0.00     0.211 HD
ENDBRANCH  39  44
BRANCH  41  46
ATOM     46  N   UNL     1       5.088   3.161  -0.328  1.00  0.00    -0.304 NA
ATOM     47  C   UNL     1       4.483   4.102  -1.272  1.00  0.00     0.105 C 
ATOM     48  C   UNL     1       6.449   3.625  -0.022  1.00  0.00     0.105 C 
ENDBRANCH  41  46
ENDBRANCH  36  37
ENDBRANCH  35  36
BRANCH  35  49
ATOM     49  C   UNL     1       1.730  -2.777   0.350  1.00  0.00     0.089 C 
ATOM     50  C   UNL     1       1.889  -2.829   1.864  1.00  0.00     0.045 C 
BRANCH  49  51
ATOM     51  O   UNL     1       2.916  -3.381  -0.203  1.00  0.00    -0.387 OA
ATOM     52  H   UNL     1       3.445  -2.686  -0.627  1.00  0.00     0.211 HD
ENDBRANCH  49  51
BRANCH  49  53
ATOM     53  C   UNL     1       0.534  -3.600  -0.183  1.00  0.00     0.049 C 
BRANCH  53  54
ATOM     54  C   UNL     1       0.186  -5.008   0.320  1.00  0.00     0.056 C 
ATOM     55  C   UNL     1       1.375  -5.964   0.353  1.00  0.00     0.016 C 
BRANCH  54  56
ATOM     56  C   UNL     1      -0.610  -5.016   1.635  1.00  0.00     0.142 CG0
ATOM     57  O   UNL     1      -0.179  -5.643   2.609  1.00  0.00    -0.299 OA
ATOM     58  G   UNL     1      -1.913  -4.175   1.780  1.00  0.00     0.000 G0
ENDBRANCH  54  56
ENDBRANCH  53  54
ENDBRANCH  49  53
ENDBRANCH  35  49
ENDBRANCH  33  35
ENDBRANCH  19  33
ENDBRANCH   1  19
TORSDOF 10
