REMARK SMILES Clc1ccc2c(c1)CCc1cccnc1C2=C1CCNCC1
REMARK SMILES IDX 16 1 17 2 18 3 19 4 20 5 21 6 22 7 5 9 2 10 3 11 7 12 4 13
REMARK SMILES IDX 6 14 1 15 8 16 15 18 10 19 14 20 11 21 13 22 12 23 9 24
REMARK H PARENT 20 8
REMARK Flexibility Score:    8.900
ROOT
ATOM      1  C   UNL     1       0.032   0.067   0.110  1.00  0.00     0.007 C 
ATOM      2  C   UNL     1       1.217   0.368  -0.485  1.00  0.00    -0.058 C 
ATOM      3  C   UNL     1       2.248  -0.642  -0.972  1.00  0.00     0.047 C 
ATOM      4  C   UNL     1       3.615  -0.366  -0.324  1.00  0.00     0.085 C 
ATOM      5  N   UNL     1       4.093   1.003  -0.570  1.00  0.00    -0.316 NA
ATOM      6  C   UNL     1       3.097   1.990  -0.119  1.00  0.00     0.085 C 
ATOM      7  C   UNL     1       1.726   1.774  -0.776  1.00  0.00     0.047 C 
ATOM      8  H   UNL     1       4.961   1.151  -0.057  1.00  0.00     0.122 HD
ENDROOT
BRANCH   1   9
ATOM      9  C   UNL     1      -0.376  -1.350   0.253  1.00  0.00    -0.013 A 
ATOM     10  C   UNL     1      -1.209  -3.999   0.503  1.00  0.00     0.041 A 
ATOM     11  C   UNL     1      -0.208  -3.509   1.339  1.00  0.00     0.021 A 
ATOM     12  C   UNL     1      -1.812  -3.173  -0.447  1.00  0.00     0.024 A 
ATOM     13  C   UNL     1       0.205  -2.182   1.219  1.00  0.00     0.010 A 
ATOM     14  C   UNL     1      -1.404  -1.839  -0.573  1.00  0.00    -0.038 A 
ATOM     15  Cl  UNL     1      -1.719  -5.637   0.654  1.00  0.00    -0.084 Cl
BRANCH  14  16
ATOM     16  C   UNL     1      -2.073  -0.906  -1.553  1.00  0.00     0.041 CG0
ATOM     17  G   UNL     1      -2.914   0.169  -0.851  1.00  0.00     0.000 G0
ENDBRANCH  14  16
ENDBRANCH   1   9
BRANCH   1  18
ATOM     18  C   UNL     1      -0.922   1.131   0.524  1.00  0.00     0.074 A 
ATOM     19  C   UNL     1      -2.251   1.167   0.078  1.00  0.00    -0.021 A 
ATOM     20  N   UNL     1      -0.418   2.025   1.419  1.00  0.00    -0.256 NA
ATOM     21  C   UNL     1      -3.060   2.204   0.575  1.00  0.00     0.007 A 
ATOM     22  C   UNL     1      -1.235   3.000   1.865  1.00  0.00     0.112 A 
ATOM     23  C   UNL     1      -2.550   3.134   1.473  1.00  0.00     0.020 A 
BRANCH  19  24
ATOM     24  C   UNL     1      -2.914   0.169  -0.851  1.00  0.00     0.042 CG0
ATOM     25  G   UNL     1      -2.073  -0.906  -1.553  1.00  0.00     0.000 G0
ENDBRANCH  19  24
ENDBRANCH   1  18
TORSDOF 0
