REMARK SMILES CC1(C)O[C@@H]2C[C@H]3[C@@H]4CCC5=CC(=O)C=C[C@]5(C)[C@H]4[C@@H](O)C[C@]3(C)[C@]2(C(=O)CO)O1
REMARK SMILES IDX 26 1 27 2 25 3 2 4 4 5 30 6 5 7 6 8 23 9 7 10 22 11 8 12
REMARK SMILES IDX 20 13 9 14 19 15 10 16 17 17 11 18 16 19 12 20 15 21 13 22
REMARK SMILES IDX 14 23 1 24 3 25 24 26 18 27 21 28 28 30 29 31
REMARK H PARENT 21 29 29 32
ROOT
ATOM      1  C   UNL     1       3.382  -1.581  -0.832  1.00  0.00     0.193 C 
ATOM      2  O   UNL     1       3.413  -2.670  -0.243  1.00  0.00    -0.294 OA
ENDROOT
BRANCH   1   3
ATOM      3  C   UNL     1       2.448  -0.444  -0.382  1.00  0.00     0.164 C 
ATOM      4  C   UNL     1       3.524   0.996   1.058  1.00  0.00     0.164 C 
ATOM      5  O   UNL     1       3.520   1.651  -0.214  1.00  0.00    -0.344 OA
ATOM      6  O   UNL     1       2.705  -0.174   1.006  1.00  0.00    -0.333 OA
ATOM      7  C   UNL     1       2.630   0.921  -1.052  1.00  0.00     0.162 C 
ATOM      8  C   UNL     1       1.233   1.581  -1.114  1.00  0.00     0.040 C 
ATOM      9  C   UNL     1       0.943  -0.768  -0.613  1.00  0.00     0.012 C 
ATOM     10  C   UNL     1       0.327   0.623  -0.339  1.00  0.00     0.005 C 
ATOM     11  C   UNL     1       0.309  -1.751   0.392  1.00  0.00     0.042 C 
ATOM     12  C   UNL     1      -1.191   0.674  -0.561  1.00  0.00    -0.000 C 
ATOM     13  C   UNL     1      -1.236  -1.762   0.341  1.00  0.00     0.119 C 
ATOM     14  C   UNL     1      -1.721   2.102  -0.343  1.00  0.00     0.009 C 
ATOM     15  C   UNL     1      -1.873  -0.341   0.426  1.00  0.00     0.035 C 
ATOM     16  C   UNL     1      -3.242   2.173  -0.420  1.00  0.00     0.032 C 
ATOM     17  C   UNL     1      -3.447  -0.285   0.339  1.00  0.00     0.013 C 
ATOM     18  C   UNL     1      -3.858   1.184   0.536  1.00  0.00    -0.056 C 
ATOM     19  C   UNL     1      -4.066  -1.171   1.415  1.00  0.00    -0.012 C 
ATOM     20  C   UNL     1      -4.676   1.606   1.517  1.00  0.00     0.052 C 
ATOM     21  C   UNL     1      -4.879  -0.748   2.392  1.00  0.00     0.048 C 
ATOM     22  C   UNL     1      -5.249   0.674   2.508  1.00  0.00     0.178 C 
ATOM     23  O   UNL     1      -5.996   1.067   3.395  1.00  0.00    -0.290 OA
ATOM     24  C   UNL     1       4.957   0.597   1.399  1.00  0.00     0.075 C 
ATOM     25  C   UNL     1       2.973   1.945   2.115  1.00  0.00     0.075 C 
ATOM     26  C   UNL     1       0.734  -1.256  -2.072  1.00  0.00     0.015 C 
ATOM     27  C   UNL     1      -4.027  -0.770  -1.008  1.00  0.00     0.021 C 
BRANCH  13  28
ATOM     28  O   UNL     1      -1.660  -2.444  -0.831  1.00  0.00    -0.393 OA
ATOM     29  H   UNL     1      -1.294  -3.346  -0.796  1.00  0.00     0.210 HD
ENDBRANCH  13  28
ENDBRANCH   1   3
BRANCH   1  30
ATOM     30  C   UNL     1       4.301  -1.358  -2.026  1.00  0.00     0.234 C 
BRANCH  30  31
ATOM     31  O   UNL     1       5.018  -2.539  -2.362  1.00  0.00    -0.388 OA
ATOM     32  H   UNL     1       4.951  -3.132  -1.585  1.00  0.00     0.211 HD
ENDBRANCH  30  31
ENDBRANCH   1  30
TORSDOF 4
