REMARK SMILES CCCCCCCCCCCCCCCC(=O)OCC(=O)[C@@]1(O)[C@H](C)C[C@H]2[C@@H]3CCC4=CC(=O)C=C[C@]4(C)[C@@]3(F)[C@@H](O)C[C@@]21C
REMARK SMILES IDX 11 1 10 2 9 3 8 4 7 5 6 6 5 7 4 8 3 9 2 10 1 11 12 12 13 13
REMARK SMILES IDX 14 14 15 15 16 16 17 17 18 18 19 19 20 20 21 21 22 22 24 23
REMARK SMILES IDX 44 24 26 25 43 26 27 27 41 28 28 29 39 30 29 31 37 32 30 33
REMARK SMILES IDX 36 34 31 35 35 36 32 37 33 38 34 39 25 40 45 41 40 42 38 43
REMARK SMILES IDX 23 44 42 46
REMARK H PARENT 23 45 42 47
ROOT
ATOM      1  C   UNL     1       5.431   0.680  -1.797  1.00  0.00     0.000 C 
ENDROOT
BRANCH   1   2
ATOM      2  C   UNL     1       5.574  -0.845  -1.788  1.00  0.00     0.000 C 
BRANCH   2   3
ATOM      3  C   UNL     1       6.029  -1.464  -0.464  1.00  0.00     0.000 C 
BRANCH   3   4
ATOM      4  C   UNL     1       7.367  -0.913   0.035  1.00  0.00     0.000 C 
BRANCH   4   5
ATOM      5  C   UNL     1       7.862  -1.683   1.258  1.00  0.00    -0.000 C 
BRANCH   5   6
ATOM      6  C   UNL     1       9.093  -1.070   1.936  1.00  0.00    -0.000 C 
BRANCH   6   7
ATOM      7  C   UNL     1      10.345  -0.998   1.053  1.00  0.00    -0.000 C 
BRANCH   7   8
ATOM      8  C   UNL     1      10.548   0.387   0.429  1.00  0.00    -0.000 C 
BRANCH   8   9
ATOM      9  C   UNL     1      11.784   0.468  -0.473  1.00  0.00    -0.000 C 
BRANCH   9  10
ATOM     10  C   UNL     1      13.044   1.014   0.207  1.00  0.00    -0.003 C 
ATOM     11  C   UNL     1      13.584   0.141   1.326  1.00  0.00     0.004 C 
ENDBRANCH   9  10
ENDBRANCH   8   9
ENDBRANCH   7   8
ENDBRANCH   6   7
ENDBRANCH   5   6
ENDBRANCH   4   5
ENDBRANCH   3   4
ENDBRANCH   2   3
ENDBRANCH   1   2
BRANCH   1  12
ATOM     12  C   UNL     1       4.468   1.258  -0.759  1.00  0.00     0.000 C 
BRANCH  12  13
ATOM     13  C   UNL     1       3.011   0.847  -0.989  1.00  0.00     0.001 C 
BRANCH  13  14
ATOM     14  C   UNL     1       2.082   1.556   0.005  1.00  0.00     0.012 C 
BRANCH  14  15
ATOM     15  C   UNL     1       0.607   1.333  -0.320  1.00  0.00     0.123 C 
BRANCH  15  16
ATOM     16  C   UNL     1       0.112  -0.042   0.058  1.00  0.00     0.306 C 
ATOM     17  O   UNL     1       0.471  -0.679   1.038  1.00  0.00    -0.252 OA
BRANCH  16  18
ATOM     18  O   UNL     1      -0.846  -0.443  -0.822  1.00  0.00    -0.458 OA
BRANCH  18  19
ATOM     19  C   UNL     1      -1.512  -1.650  -0.446  1.00  0.00     0.311 C 
BRANCH  19  20
ATOM     20  C   UNL     1      -2.652  -1.945  -1.410  1.00  0.00     0.202 C 
ATOM     21  O   UNL     1      -2.673  -3.014  -2.028  1.00  0.00    -0.293 OA
BRANCH  20  22
ATOM     22  C   UNL     1      -3.790  -0.894  -1.547  1.00  0.00     0.134 C 
ATOM     23  C   UNL     1      -4.616  -1.091  -2.869  1.00  0.00     0.026 C 
ATOM     24  C   UNL     1      -4.906  -1.004  -0.447  1.00  0.00     0.010 C 
ATOM     25  C   UNL     1      -6.060  -0.624  -2.548  1.00  0.00     0.011 C 
ATOM     26  C   UNL     1      -4.580  -0.370   0.923  1.00  0.00     0.045 C 
ATOM     27  C   UNL     1      -5.997  -0.123  -1.106  1.00  0.00     0.005 C 
ATOM     28  C   UNL     1      -5.824  -0.164   1.822  1.00  0.00     0.154 C 
ATOM     29  C   UNL     1      -7.302  -0.026  -0.299  1.00  0.00     0.035 C 
ATOM     30  C   UNL     1      -6.985   0.591   1.104  1.00  0.00     0.152 C 
ATOM     31  C   UNL     1      -8.338   0.832  -1.059  1.00  0.00     0.012 C 
ATOM     32  C   UNL     1      -8.295   0.816   1.963  1.00  0.00     0.044 C 
ATOM     33  C   UNL     1      -9.605   1.083  -0.247  1.00  0.00     0.032 C 
ATOM     34  C   UNL     1      -7.970   1.536   3.272  1.00  0.00    -0.009 C 
ATOM     35  C   UNL     1      -9.269   1.649   1.108  1.00  0.00    -0.053 C 
ATOM     36  C   UNL     1      -8.463   2.724   3.645  1.00  0.00     0.048 C 
ATOM     37  C   UNL     1      -9.763   2.841   1.489  1.00  0.00     0.052 C 
ATOM     38  C   UNL     1      -9.401   3.463   2.779  1.00  0.00     0.178 C 
ATOM     39  O   UNL     1      -9.863   4.545   3.118  1.00  0.00    -0.290 OA
ATOM     40  C   UNL     1      -4.048  -0.384  -4.097  1.00  0.00     0.011 C 
ATOM     41  C   UNL     1      -5.337  -2.483  -0.262  1.00  0.00     0.015 C 
ATOM     42  F   UNL     1      -6.472   1.856   0.852  1.00  0.00    -0.239 F 
ATOM     43  C   UNL     1      -9.017  -0.492   2.368  1.00  0.00     0.024 C 
BRANCH  22  44
ATOM     44  O   UNL     1      -3.260   0.432  -1.524  1.00  0.00    -0.381 OA
ATOM     45  H   UNL     1      -2.553   0.487  -2.193  1.00  0.00     0.212 HD
ENDBRANCH  22  44
BRANCH  28  46
ATOM     46  O   UNL     1      -6.238  -1.419   2.355  1.00  0.00    -0.390 OA
ATOM     47  H   UNL     1      -5.498  -1.782   2.874  1.00  0.00     0.211 HD
ENDBRANCH  28  46
ENDBRANCH  20  22
ENDBRANCH  19  20
ENDBRANCH  18  19
ENDBRANCH  16  18
ENDBRANCH  15  16
ENDBRANCH  14  15
ENDBRANCH  13  14
ENDBRANCH  12  13
ENDBRANCH   1  12
TORSDOF 20
