REMARK SMILES CN(C)CC[C@@H](c1ccc(Br)cc1)c1ccccn1
REMARK SMILES IDX 5 1 4 2 2 3 1 4 3 5 6 6 7 7 8 8 13 9 9 10 12 11 10 12 11 13
REMARK SMILES IDX 14 14 15 15 19 16 16 17 18 18 17 19
REMARK H PARENT
ROOT
ATOM      1  C   UNL     1       0.829  -0.772  -0.120  1.00  0.00     0.030 C 
ENDROOT
BRANCH   1   2
ATOM      2  C   UNL     1       2.001   0.022  -0.722  1.00  0.00     0.085 C 
BRANCH   2   3
ATOM      3  N   UNL     1       3.305  -0.621  -0.464  1.00  0.00    -0.309 NA
ATOM      4  C   UNL     1       4.336  -0.002  -1.303  1.00  0.00     0.104 C 
ATOM      5  C   UNL     1       3.697  -0.518   0.944  1.00  0.00     0.104 C 
ENDBRANCH   2   3
ENDBRANCH   1   2
BRANCH   1   6
ATOM      6  C   UNL     1      -0.547  -0.204  -0.546  1.00  0.00     0.069 C 
BRANCH   6   7
ATOM      7  C   UNL     1      -1.742  -1.111  -0.238  1.00  0.00    -0.039 A 
ATOM      8  C   UNL     1      -1.707  -2.130   0.726  1.00  0.00     0.005 A 
ATOM      9  C   UNL     1      -2.944  -0.898  -0.940  1.00  0.00     0.005 A 
ATOM     10  C   UNL     1      -2.835  -2.918   0.975  1.00  0.00     0.016 A 
ATOM     11  C   UNL     1      -4.072  -1.684  -0.692  1.00  0.00     0.016 A 
ATOM     12  C   UNL     1      -4.011  -2.692   0.265  1.00  0.00     0.017 A 
ATOM     13  Br  UNL     1      -5.534  -3.757   0.606  1.00  0.00    -0.051 Br
ENDBRANCH   6   7
BRANCH   6  14
ATOM     14  C   UNL     1      -0.744   1.209  -0.007  1.00  0.00     0.048 A 
ATOM     15  C   UNL     1      -0.997   1.446   1.345  1.00  0.00     0.024 A 
ATOM     16  N   UNL     1      -0.628   2.221  -0.906  1.00  0.00    -0.261 NA
ATOM     17  C   UNL     1      -1.148   2.758   1.785  1.00  0.00     0.003 A 
ATOM     18  C   UNL     1      -0.782   3.484  -0.449  1.00  0.00     0.111 A 
ATOM     19  C   UNL     1      -1.040   3.799   0.873  1.00  0.00     0.020 A 
ENDBRANCH   6  14
ENDBRANCH   1   6
TORSDOF 5
