REMARK SMILES O=c1oc2ccccc2c(O)c1Cc1c(O)c2ccccc2oc1=O
REMARK SMILES IDX 13 1 14 2 15 3 17 4 24 5 18 6 22 7 25 8 23 9 19 10 21 11
REMARK SMILES IDX 20 12 16 13 12 15 10 16 2 17 9 18 3 19 1 20 4 21 8 22 5 23
REMARK SMILES IDX 7 24 6 25 11 26
REMARK H PARENT 16 14 11 27
ROOT
ATOM      1  C   UNL     1       0.112  -0.584   1.965  1.00  0.00     0.094 C 
ENDROOT
BRANCH   1   2
ATOM      2  C   UNL     1       1.287  -0.138   1.130  1.00  0.00     0.085 C 
ATOM      3  C   UNL     1       2.125  -0.984   0.511  1.00  0.00     0.137 C 
ATOM      4  C   UNL     1       3.256  -0.485  -0.276  1.00  0.00     0.060 A 
ATOM      5  C   UNL     1       1.481   1.329   1.032  1.00  0.00     0.343 C 
ATOM      6  C   UNL     1       4.238  -1.299  -0.857  1.00  0.00     0.016 A 
ATOM      7  C   UNL     1       3.375   0.893  -0.441  1.00  0.00     0.142 A 
ATOM      8  O   UNL     1       0.788   2.121   1.663  1.00  0.00    -0.246 OA
ATOM      9  O   UNL     1       2.477   1.780   0.177  1.00  0.00    -0.422 OA
ATOM     10  C   UNL     1       5.277  -0.737  -1.610  1.00  0.00     0.001 A 
ATOM     11  C   UNL     1       4.402   1.468  -1.191  1.00  0.00     0.048 A 
ATOM     12  C   UNL     1       5.354   0.645  -1.784  1.00  0.00     0.004 A 
BRANCH   3  13
ATOM     13  O   UNL     1       1.917  -2.349   0.566  1.00  0.00    -0.507 OA
ATOM     14  H   UNL     1       2.230  -2.743  -0.265  1.00  0.00     0.293 HD
ENDBRANCH   3  13
ENDBRANCH   1   2
BRANCH   1  15
ATOM     15  C   UNL     1      -1.277  -0.357   1.390  1.00  0.00     0.085 C 
ATOM     16  C   UNL     1      -1.609  -0.045   0.124  1.00  0.00     0.137 C 
ATOM     17  C   UNL     1      -2.348  -0.558   2.407  1.00  0.00     0.343 C 
ATOM     18  C   UNL     1      -3.005   0.197  -0.261  1.00  0.00     0.060 A 
ATOM     19  O   UNL     1      -3.665  -0.438   1.992  1.00  0.00    -0.422 OA
ATOM     20  O   UNL     1      -2.088  -0.866   3.566  1.00  0.00    -0.246 OA
ATOM     21  C   UNL     1      -3.993  -0.032   0.690  1.00  0.00     0.142 A 
ATOM     22  C   UNL     1      -3.410   0.678  -1.514  1.00  0.00     0.016 A 
ATOM     23  C   UNL     1      -5.350   0.153   0.419  1.00  0.00     0.048 A 
ATOM     24  C   UNL     1      -4.767   0.872  -1.803  1.00  0.00     0.001 A 
ATOM     25  C   UNL     1      -5.737   0.601  -0.840  1.00  0.00     0.004 A 
BRANCH  16  26
ATOM     26  O   UNL     1      -0.656   0.032  -0.873  1.00  0.00    -0.507 OA
ATOM     27  H   UNL     1      -1.067  -0.215  -1.718  1.00  0.00     0.293 HD
ENDBRANCH  16  26
ENDBRANCH   1  15
TORSDOF 4
