REMARK SMILES CCOCC
REMARK SMILES IDX 3 1 2 2 1 3 4 4 5 5
REMARK H PARENT
ROOT
ATOM      1  O   UNL     1      -0.048   0.322   0.031  1.00  0.00    -0.382 OA
ENDROOT
BRANCH   1   2
ATOM      2  C   UNL     1       1.235  -0.300   0.019  1.00  0.00     0.156 C 
ATOM      3  C   UNL     1       2.291   0.777   0.174  1.00  0.00     0.035 C 
ENDBRANCH   1   2
BRANCH   1   4
ATOM      4  C   UNL     1      -1.098  -0.631  -0.110  1.00  0.00     0.156 C 
ATOM      5  C   UNL     1      -2.421   0.106  -0.087  1.00  0.00     0.035 C 
ENDBRANCH   1   4
TORSDOF 2
