REMARK SMILES CCN(CC)C(=O)c1cccc(C)c1
REMARK SMILES IDX 3 1 6 2 7 3 2 4 1 5 4 6 5 7 8 8 14 9 9 10 12 11 10 12 11 13
REMARK SMILES IDX 13 14
REMARK H PARENT
ROOT
ATOM      1  N   UNL     1       1.612  -0.296  -0.477  1.00  0.00    -0.339 N 
ATOM      2  C   UNL     1       0.469  -0.360  -1.280  1.00  0.00     0.253 C 
ATOM      3  O   UNL     1       0.427  -0.939  -2.363  1.00  0.00    -0.269 OA
ENDROOT
BRANCH   1   4
ATOM      4  C   UNL     1       2.824  -0.940  -0.982  1.00  0.00     0.116 C 
ATOM      5  C   UNL     1       2.863  -2.427  -0.664  1.00  0.00     0.027 C 
ENDBRANCH   1   4
BRANCH   1   6
ATOM      6  C   UNL     1       1.623   0.169   0.914  1.00  0.00     0.116 C 
ATOM      7  C   UNL     1       2.334   1.505   1.072  1.00  0.00     0.027 C 
ENDBRANCH   1   6
BRANCH   2   8
ATOM      8  C   UNL     1      -0.769   0.293  -0.814  1.00  0.00     0.040 A 
ATOM      9  C   UNL     1      -1.870  -0.504  -0.482  1.00  0.00     0.017 A 
ATOM     10  C   UNL     1      -0.853   1.686  -0.758  1.00  0.00     0.014 A 
ATOM     11  C   UNL     1      -3.057   0.093  -0.042  1.00  0.00    -0.050 A 
ATOM     12  C   UNL     1      -2.038   2.284  -0.335  1.00  0.00     0.001 A 
ATOM     13  C   UNL     1      -3.134   1.492   0.021  1.00  0.00     0.003 A 
ATOM     14  C   UNL     1      -4.253  -0.750   0.288  1.00  0.00     0.044 C 
ENDBRANCH   2   8
TORSDOF 3
