REMARK SMILES N#CC(CCN1CCC(C(=O)O)(c2ccccc2)CC1)(c1ccccc1)c1ccccc1
REMARK SMILES IDX 9 1 8 2 7 3 6 4 20 5 19 6 10 7 11 8 12 9 13 11 14 12 18 13
REMARK SMILES IDX 15 14 17 15 16 16 5 17 4 18 3 19 2 20 1 21 21 22 22 23 26 24
REMARK SMILES IDX 23 25 25 26 24 27 27 28 28 29 32 30 29 31 31 32 30 33
REMARK H PARENT 12 10
ROOT
ATOM      1  C   UNL     1       3.538   0.035   0.093  1.00  0.00     0.095 C 
ATOM      2  C   UNL     1       2.865  -1.001  -0.858  1.00  0.00     0.039 C 
ATOM      3  C   UNL     1       1.362  -1.098  -0.594  1.00  0.00     0.086 C 
ATOM      4  N   UNL     1       0.655   0.156  -0.894  1.00  0.00    -0.303 NA
ATOM      5  C   UNL     1       1.541   1.326  -0.915  1.00  0.00     0.086 C 
ATOM      6  C   UNL     1       2.616   1.300   0.170  1.00  0.00     0.039 C 
ENDROOT
BRANCH   1   7
ATOM      7  C   UNL     1       3.631  -0.549   1.522  1.00  0.00     0.314 C 
ATOM      8  O   UNL     1       3.686   0.091   2.564  1.00  0.00    -0.251 OA
BRANCH   7   9
ATOM      9  O   UNL     1       3.710  -1.893   1.582  1.00  0.00    -0.481 OA
ATOM     10  H   UNL     1       3.820  -2.075   2.540  1.00  0.00     0.296 HD
ENDBRANCH   7   9
ENDBRANCH   1   7
BRANCH   1  11
ATOM     11  C   UNL     1       4.973   0.416  -0.345  1.00  0.00    -0.031 A 
ATOM     12  C   UNL     1       5.648  -0.225  -1.398  1.00  0.00     0.005 A 
ATOM     13  C   UNL     1       5.677   1.417   0.357  1.00  0.00     0.005 A 
ATOM     14  C   UNL     1       6.952   0.139  -1.753  1.00  0.00     0.000 A 
ATOM     15  C   UNL     1       6.980   1.780   0.003  1.00  0.00     0.000 A 
ATOM     16  C   UNL     1       7.615   1.143  -1.056  1.00  0.00     0.000 A 
ENDBRANCH   1  11
BRANCH   4  17
ATOM     17  C   UNL     1      -0.520   0.360  -0.027  1.00  0.00     0.087 C 
BRANCH  17  18
ATOM     18  C   UNL     1      -1.626  -0.680  -0.310  1.00  0.00     0.047 C 
BRANCH  18  19
ATOM     19  C   UNL     1      -2.891  -0.565   0.614  1.00  0.00     0.108 C 
ATOM     20  C   UNL     1      -2.422  -0.892   2.000  1.00  0.00     0.079 C 
ATOM     21  N   UNL     1      -2.033  -1.132   3.069  1.00  0.00    -0.197 NA
BRANCH  19  22
ATOM     22  C   UNL     1      -3.996  -1.604   0.257  1.00  0.00    -0.023 A 
ATOM     23  C   UNL     1      -3.850  -2.568  -0.757  1.00  0.00     0.006 A 
ATOM     24  C   UNL     1      -5.210  -1.597   0.979  1.00  0.00     0.006 A 
ATOM     25  C   UNL     1      -4.873  -3.480  -1.037  1.00  0.00     0.000 A 
ATOM     26  C   UNL     1      -6.229  -2.509   0.697  1.00  0.00     0.000 A 
ATOM     27  C   UNL     1      -6.060  -3.451  -0.312  1.00  0.00     0.000 A 
ENDBRANCH  19  22
BRANCH  19  28
ATOM     28  C   UNL     1      -3.470   0.871   0.484  1.00  0.00    -0.023 A 
ATOM     29  C   UNL     1      -3.467   1.793   1.549  1.00  0.00     0.006 A 
ATOM     30  C   UNL     1      -4.016   1.294  -0.746  1.00  0.00     0.006 A 
ATOM     31  C   UNL     1      -3.987   3.080   1.386  1.00  0.00     0.000 A 
ATOM     32  C   UNL     1      -4.535   2.580  -0.904  1.00  0.00     0.000 A 
ATOM     33  C   UNL     1      -4.519   3.474   0.162  1.00  0.00     0.000 A 
ENDBRANCH  19  28
ENDBRANCH  18  19
ENDBRANCH  17  18
ENDBRANCH   4  17
TORSDOF 8
