REMARK SMILES C[C@@H]1C[C@H]2[C@@H]3C[C@H](F)C4=CC(=O)C=C[C@]4(C)[C@@]3(F)[C@@H](O)C[C@]2(C)[C@H]1C(=O)CO
REMARK SMILES IDX 25 1 26 2 24 3 2 4 3 5 4 6 22 7 5 8 21 9 6 10 17 11 19 12
REMARK SMILES IDX 7 13 15 14 9 15 14 16 10 17 13 18 11 19 12 20 1 21 23 22
REMARK SMILES IDX 18 23 8 24 16 25 20 26 27 28 28 29
REMARK H PARENT 20 27 28 30
ROOT
ATOM      1  C   UNL     1       4.085   0.276  -0.678  1.00  0.00     0.162 C 
ATOM      2  O   UNL     1       4.105   1.408  -1.181  1.00  0.00    -0.297 OA
ENDROOT
BRANCH   1   3
ATOM      3  C   UNL     1       2.794  -0.545  -0.635  1.00  0.00     0.068 C 
ATOM      4  C   UNL     1       2.758  -1.753   0.354  1.00  0.00    -0.003 C 
ATOM      5  C   UNL     1       1.314  -1.810   0.915  1.00  0.00     0.008 C 
ATOM      6  C   UNL     1       0.538  -0.856   0.015  1.00  0.00     0.002 C 
ATOM      7  C   UNL     1       1.539   0.290  -0.235  1.00  0.00    -0.017 C 
ATOM      8  C   UNL     1      -0.848  -0.372   0.468  1.00  0.00     0.037 C 
ATOM      9  C   UNL     1       0.961   1.169  -1.362  1.00  0.00     0.043 C 
ATOM     10  C   UNL     1      -1.773  -1.571   0.742  1.00  0.00     0.049 C 
ATOM     11  C   UNL     1      -1.451   0.555  -0.642  1.00  0.00     0.152 C 
ATOM     12  C   UNL     1      -0.462   1.690  -1.055  1.00  0.00     0.154 C 
ATOM     13  C   UNL     1      -3.193  -1.142   1.086  1.00  0.00     0.194 C 
ATOM     14  C   UNL     1      -2.922   1.022  -0.283  1.00  0.00     0.047 C 
ATOM     15  C   UNL     1      -3.755  -0.238   0.019  1.00  0.00    -0.020 C 
ATOM     16  C   UNL     1      -3.537   1.815  -1.437  1.00  0.00    -0.009 C 
ATOM     17  C   UNL     1      -4.881  -0.565  -0.641  1.00  0.00     0.055 C 
ATOM     18  C   UNL     1      -4.659   1.484  -2.091  1.00  0.00     0.048 C 
ATOM     19  C   UNL     1      -5.419   0.272  -1.732  1.00  0.00     0.178 C 
ATOM     20  O   UNL     1      -6.454  -0.024  -2.315  1.00  0.00    -0.290 OA
ATOM     21  C   UNL     1       3.121  -3.067  -0.339  1.00  0.00     0.008 C 
ATOM     22  C   UNL     1       1.846   1.137   1.030  1.00  0.00     0.012 C 
ATOM     23  F   UNL     1      -1.564  -0.244  -1.771  1.00  0.00    -0.239 F 
ATOM     24  F   UNL     1      -3.942  -2.274   1.227  1.00  0.00    -0.243 F 
ATOM     25  C   UNL     1      -3.004   1.948   0.954  1.00  0.00     0.024 C 
BRANCH  12  26
ATOM     26  O   UNL     1      -0.392   2.720  -0.073  1.00  0.00    -0.390 OA
ATOM     27  H   UNL     1       0.248   3.386  -0.388  1.00  0.00     0.211 HD
ENDBRANCH  12  26
ENDBRANCH   1   3
BRANCH   1  28
ATOM     28  C   UNL     1       5.386  -0.332  -0.160  1.00  0.00     0.231 C 
BRANCH  28  29
ATOM     29  O   UNL     1       6.497   0.513  -0.431  1.00  0.00    -0.389 OA
ATOM     30  H   UNL     1       6.123   1.367  -0.740  1.00  0.00     0.211 HD
ENDBRANCH  28  29
ENDBRANCH   1  28
TORSDOF 4
