REMARK SMILES CO[C@@H]1[C@@H](O)[C@H](O[C@H]2CC[C@@]3(C)[C@H](CC[C@@H]4[C@@H]3CC[C@]3(C)[C@@H](C5=CC(=O)OC5)[C@@H](O)C[C@]43O)C2)O[C@H](C)[C@@H]1O[C@@H]1O[C@H](CO)[C@@H](O)[C@H](O)[C@H]1O
REMARK SMILES IDX 3 1 4 2 6 3 35 4 36 5 37 6 38 7 2 8 1 9 5 10 39 12 40 13
REMARK SMILES IDX 41 14 49 15 42 16 47 17 45 18 50 19 43 21 44 22 48 24 46 26
REMARK SMILES IDX 7 28 8 29 9 30 34 31 10 32 13 33 11 34 14 35 17 36 15 37
REMARK SMILES IDX 16 38 18 39 32 40 19 41 31 42 20 43 29 44 22 45 12 46 21 47
REMARK SMILES IDX 33 48 30 50 23 52 24 53 28 54 25 55 27 56 26 57
REMARK H PARENT 5 11 50 20 44 23 48 25 46 27 33 49 30 51
ROOT
ATOM      1  C   UNL     1      -4.053   1.716   0.954  1.00  0.00     0.183 C 
ATOM      2  C   UNL     1      -2.890   0.969   0.277  1.00  0.00     0.202 C 
ATOM      3  C   UNL     1      -2.513  -0.278   1.103  1.00  0.00     0.282 C 
ATOM      4  O   UNL     1      -3.653  -1.122   1.274  1.00  0.00    -0.344 OA
ATOM      5  C   UNL     1      -4.718  -0.477   1.978  1.00  0.00     0.150 C 
ATOM      6  C   UNL     1      -5.797  -1.530   2.214  1.00  0.00     0.041 C 
ATOM      7  C   UNL     1      -5.240   0.767   1.227  1.00  0.00     0.182 C 
ENDROOT
BRANCH   1   8
ATOM      8  O   UNL     1      -4.428   2.811   0.092  1.00  0.00    -0.376 OA
ATOM      9  C   UNL     1      -5.047   3.901   0.778  1.00  0.00     0.195 C 
ENDBRANCH   1   8
BRANCH   2  10
ATOM     10  O   UNL     1      -1.785   1.886   0.158  1.00  0.00    -0.385 OA
ATOM     11  H   UNL     1      -2.132   2.618  -0.375  1.00  0.00     0.211 HD
ENDBRANCH   2  10
BRANCH   7  12
ATOM     12  O   UNL     1      -5.840   0.405  -0.027  1.00  0.00    -0.341 OA
BRANCH  12  13
ATOM     13  C   UNL     1      -7.216   0.796  -0.135  1.00  0.00     0.282 C 
ATOM     14  O   UNL     1      -8.028  -0.215   0.439  1.00  0.00    -0.341 OA
ATOM     15  C   UNL     1      -7.506   1.009  -1.629  1.00  0.00     0.202 C 
ATOM     16  C   UNL     1      -9.429   0.035   0.312  1.00  0.00     0.178 C 
ATOM     17  C   UNL     1      -9.000   1.247  -1.850  1.00  0.00     0.179 C 
ATOM     18  C   UNL     1      -9.849   0.179  -1.156  1.00  0.00     0.177 C 
BRANCH  15  19
ATOM     19  O   UNL     1      -6.768   2.161  -2.066  1.00  0.00    -0.385 OA
ATOM     20  H   UNL     1      -5.835   1.990  -1.827  1.00  0.00     0.211 HD
ENDBRANCH  15  19
BRANCH  16  21
ATOM     21  C   UNL     1     -10.157  -1.132   0.995  1.00  0.00     0.191 C 
BRANCH  21  22
ATOM     22  O   UNL     1     -11.564  -1.069   0.802  1.00  0.00    -0.394 OA
ATOM     23  H   UNL     1     -11.951  -1.766   1.361  1.00  0.00     0.210 HD
ENDBRANCH  21  22
ENDBRANCH  16  21
BRANCH  17  24
ATOM     24  O   UNL     1      -9.316   1.242  -3.251  1.00  0.00    -0.387 OA
ATOM     25  H   UNL     1     -10.290   1.310  -3.288  1.00  0.00     0.211 HD
ENDBRANCH  17  24
BRANCH  18  26
ATOM     26  O   UNL     1     -11.218   0.579  -1.286  1.00  0.00    -0.387 OA
ATOM     27  H   UNL     1     -11.750  -0.073  -0.781  1.00  0.00     0.211 HD
ENDBRANCH  18  26
ENDBRANCH  12  13
ENDBRANCH   7  12
BRANCH   3  28
ATOM     28  O   UNL     1      -1.483  -1.020   0.437  1.00  0.00    -0.347 OA
BRANCH  28  29
ATOM     29  C   UNL     1      -0.169  -0.656   0.875  1.00  0.00     0.122 C 
ATOM     30  C   UNL     1       0.391  -1.813   1.696  1.00  0.00     0.033 C 
ATOM     31  C   UNL     1       0.722  -0.297  -0.318  1.00  0.00     0.036 C 
ATOM     32  C   UNL     1       1.903  -1.677   1.828  1.00  0.00     0.010 C 
ATOM     33  C   UNL     1       1.751  -1.380  -0.733  1.00  0.00    -0.002 C 
ATOM     34  C   UNL     1       2.641  -1.881   0.472  1.00  0.00    -0.026 C 
ATOM     35  C   UNL     1       2.566  -0.784  -1.909  1.00  0.00     0.005 C 
ATOM     36  C   UNL     1       3.991  -1.090   0.469  1.00  0.00     0.001 C 
ATOM     37  C   UNL     1       3.956  -1.382  -2.093  1.00  0.00     0.007 C 
ATOM     38  C   UNL     1       4.823  -1.335  -0.815  1.00  0.00     0.025 C 
ATOM     39  C   UNL     1       4.904  -1.318   1.686  1.00  0.00     0.005 C 
ATOM     40  C   UNL     1       6.043  -0.371  -0.908  1.00  0.00     0.076 C 
ATOM     41  C   UNL     1       6.045  -0.304   1.680  1.00  0.00     0.011 C 
ATOM     42  C   UNL     1       5.669   1.097  -1.184  1.00  0.00     0.068 C 
ATOM     43  C   UNL     1       6.919  -0.338   0.385  1.00  0.00     0.006 C 
ATOM     44  C   UNL     1       6.621   1.968  -0.356  1.00  0.00     0.125 C 
ATOM     45  C   UNL     1       7.680   1.033   0.289  1.00  0.00     0.056 C 
ATOM     46  C   UNL     1       2.885  -3.406   0.320  1.00  0.00     0.012 C 
ATOM     47  C   UNL     1       7.866  -1.549   0.516  1.00  0.00     0.015 C 
BRANCH  40  48
ATOM     48  O   UNL     1       6.863  -0.764  -2.019  1.00  0.00    -0.389 OA
ATOM     49  H   UNL     1       6.778  -1.721  -2.152  1.00  0.00     0.211 HD
ENDBRANCH  40  48
BRANCH  44  50
ATOM     50  O   UNL     1       7.160   3.032  -1.134  1.00  0.00    -0.392 OA
ATOM     51  H   UNL     1       7.618   2.628  -1.892  1.00  0.00     0.210 HD
ENDBRANCH  44  50
BRANCH  45  52
ATOM     52  C   UNL     1       9.053   1.156  -0.331  1.00  0.00    -0.019 C 
ATOM     53  C   UNL     1       9.668   0.473  -1.302  1.00  0.00     0.096 C 
ATOM     54  C   UNL     1       9.975   2.203   0.191  1.00  0.00     0.265 C 
ATOM     55  C   UNL     1      11.009   1.028  -1.449  1.00  0.00     0.331 C 
ATOM     56  O   UNL     1      11.169   2.053  -0.577  1.00  0.00    -0.458 OA
ATOM     57  O   UNL     1      11.859   0.607  -2.220  1.00  0.00    -0.247 OA
ENDBRANCH  45  52
ENDBRANCH  28  29
ENDBRANCH   3  28
TORSDOF 14
