REMARK SMILES COc1cc(C(=O)OCCCN2CCCN(CCCOC(=O)c3cc(OC)c(OC)c(OC)c3)CC2)cc(OC)c1OC
REMARK SMILES IDX 36 1 12 2 11 3 10 4 9 5 8 6 6 7 7 8 5 9 3 10 4 11 41 12
REMARK SMILES IDX 38 13 37 14 2 15 1 16 42 17 43 18 39 19 40 20 13 21 14 22
REMARK SMILES IDX 35 24 16 25 15 26 17 28 18 29 19 30 20 31 21 32 22 33 23 34
REMARK SMILES IDX 24 35 34 36 25 37 31 38 28 39 26 40 27 41 32 42 33 43 29 44
REMARK SMILES IDX 30 45
REMARK H PARENT
REMARK Flexibility Score:  368.900
ROOT
ATOM      1  C   UNL     1      -0.035   1.351  -1.950  1.00  0.00     0.100 C 
ENDROOT
BRANCH   1   2
ATOM      2  N   UNL     1      -1.163   0.535  -1.472  1.00  0.00    -0.302 NA
BRANCH   2   3
ATOM      3  C   UNL     1      -2.035   1.336  -0.596  1.00  0.00     0.088 C 
BRANCH   3   4
ATOM      4  C   UNL     1      -3.476   0.814  -0.565  1.00  0.00     0.057 C 
BRANCH   4   5
ATOM      5  C   UNL     1      -4.358   1.705   0.306  1.00  0.00     0.234 C 
BRANCH   5   6
ATOM      6  O   UNL     1      -5.710   1.218   0.309  1.00  0.00    -0.462 OA
BRANCH   6   7
ATOM      7  C   UNL     1      -5.986   0.252   1.221  1.00  0.00     0.338 C 
ATOM      8  O   UNL     1      -5.195  -0.229   2.016  1.00  0.00    -0.246 OA
BRANCH   7   9
ATOM      9  C   UNL     1      -7.411  -0.170   1.127  1.00  0.00     0.067 A 
ATOM     10  C   UNL     1      -9.654   0.050   0.225  1.00  0.00     0.165 A 
ATOM     11  C   UNL     1      -8.326   0.476   0.280  1.00  0.00     0.066 A 
ATOM     12  C   UNL     1     -10.060  -1.020   1.042  1.00  0.00     0.203 A 
ATOM     13  C   UNL     1      -9.151  -1.687   1.882  1.00  0.00     0.165 A 
ATOM     14  C   UNL     1      -7.828  -1.247   1.925  1.00  0.00     0.066 A 
BRANCH  10  15
ATOM     15  O   UNL     1     -10.624   0.613  -0.563  1.00  0.00    -0.493 OA
ATOM     16  C   UNL     1     -10.213   1.572  -1.527  1.00  0.00     0.278 C 
ENDBRANCH  10  15
BRANCH  12  17
ATOM     17  O   UNL     1     -11.358  -1.477   0.956  1.00  0.00    -0.490 OA
ATOM     18  C   UNL     1     -12.172  -0.810   1.919  1.00  0.00     0.278 C 
ENDBRANCH  12  17
BRANCH  13  19
ATOM     19  O   UNL     1      -9.654  -2.729   2.617  1.00  0.00    -0.493 OA
ATOM     20  C   UNL     1      -8.728  -3.525   3.345  1.00  0.00     0.278 C 
ENDBRANCH  13  19
ENDBRANCH   7   9
ENDBRANCH   6   7
ENDBRANCH   5   6
ENDBRANCH   4   5
ENDBRANCH   3   4
ENDBRANCH   2   3
BRANCH   2  21
ATOM     21  C   UNL     1      -0.793  -0.759  -0.885  1.00  0.00     0.086 C 
BRANCH  21  22
ATOM     22  C   UNL     1       0.498  -0.821  -0.065  1.00  0.00     0.031 CG0
ATOM     23  G   UNL     1       1.747  -1.037  -0.925  1.00  0.00     0.000 G0
ENDBRANCH  21  22
ENDBRANCH   2  21
ENDBRANCH   1   2
BRANCH   1  24
ATOM     24  C   UNL     1       1.134   0.601  -2.630  1.00  0.00     0.100 C 
BRANCH  24  25
ATOM     25  N   UNL     1       2.198   0.088  -1.750  1.00  0.00    -0.302 NA
BRANCH  25  26
ATOM     26  C   UNL     1       1.747  -1.037  -0.925  1.00  0.00     0.086 CG0
ATOM     27  G   UNL     1       0.498  -0.821  -0.065  1.00  0.00     0.000 G0
ENDBRANCH  25  26
BRANCH  25  28
ATOM     28  C   UNL     1       2.904   1.101  -0.953  1.00  0.00     0.088 C 
BRANCH  28  29
ATOM     29  C   UNL     1       3.626   2.180  -1.773  1.00  0.00     0.057 C 
BRANCH  29  30
ATOM     30  C   UNL     1       4.689   1.620  -2.717  1.00  0.00     0.234 C 
BRANCH  30  31
ATOM     31  O   UNL     1       5.683   0.871  -1.998  1.00  0.00    -0.462 OA
BRANCH  31  32
ATOM     32  C   UNL     1       6.684   1.589  -1.436  1.00  0.00     0.338 C 
ATOM     33  O   UNL     1       6.822   2.800  -1.498  1.00  0.00    -0.246 OA
BRANCH  32  34
ATOM     34  C   UNL     1       7.617   0.692  -0.699  1.00  0.00     0.067 A 
ATOM     35  C   UNL     1       8.745   1.275  -0.100  1.00  0.00     0.066 A 
ATOM     36  C   UNL     1       7.392  -0.689  -0.586  1.00  0.00     0.066 A 
ATOM     37  C   UNL     1       9.652   0.488   0.609  1.00  0.00     0.165 A 
ATOM     38  C   UNL     1       8.288  -1.492   0.121  1.00  0.00     0.165 A 
ATOM     39  C   UNL     1       9.404  -0.891   0.730  1.00  0.00     0.203 A 
BRANCH  37  40
ATOM     40  O   UNL     1      10.778   0.962   1.230  1.00  0.00    -0.493 OA
ATOM     41  C   UNL     1      11.181   2.289   0.923  1.00  0.00     0.278 C 
ENDBRANCH  37  40
BRANCH  38  42
ATOM     42  O   UNL     1       8.160  -2.847   0.289  1.00  0.00    -0.493 OA
ATOM     43  C   UNL     1       7.142  -3.507  -0.452  1.00  0.00     0.278 C 
ENDBRANCH  38  42
BRANCH  39  44
ATOM     44  O   UNL     1      10.322  -1.680   1.389  1.00  0.00    -0.490 OA
ATOM     45  C   UNL     1       9.958  -1.806   2.762  1.00  0.00     0.278 C 
ENDBRANCH  39  44
ENDBRANCH  32  34
ENDBRANCH  31  32
ENDBRANCH  30  31
ENDBRANCH  29  30
ENDBRANCH  28  29
ENDBRANCH  25  28
ENDBRANCH  24  25
ENDBRANCH   1  24
TORSDOF 18
