REMARK SMILES COc1ccc2cc1Oc1cc3c(cc1OC)CC[N+](C)(C)[C@H]3Cc1ccc(cc1)Oc1c(OC)c(OC)cc3c1[C@@H](C2)[N+](C)(C)CC3
REMARK SMILES IDX 24 1 23 2 10 3 15 4 11 5 14 6 12 7 13 8 18 9 20 10 19 11
REMARK SMILES IDX 21 12 22 13 9 14 8 15 3 16 4 17 5 18 7 19 6 20 2 21 1 22
REMARK SMILES IDX 43 23 16 25 17 26 25 27 26 28 30 29 27 30 29 31 28 32 31 33
REMARK SMILES IDX 32 34 41 35 33 36 42 37 40 38 36 39 44 40 39 41 48 42 47 43
REMARK SMILES IDX 45 44 46 45 34 47 35 48 37 49 38 50
REMARK H PARENT
REMARK Flexibility Score:   94.900
ROOT
ATOM      1  C   UNL     1       3.209   2.171  -0.562  1.00  0.00     0.105 C 
ENDROOT
BRANCH   1   2
ATOM      2  C   UNL     1       4.033   1.545   0.611  1.00  0.00     0.221 C 
ATOM      3  C   UNL     1       3.230  -2.228   0.414  1.00  0.00     0.170 A 
ATOM      4  C   UNL     1       4.501  -2.803   0.419  1.00  0.00     0.161 A 
ATOM      5  C   UNL     1       3.102  -0.832   0.456  1.00  0.00     0.061 A 
ATOM      6  C   UNL     1       5.625  -1.985   0.531  1.00  0.00     0.055 A 
ATOM      7  C   UNL     1       4.225   0.023   0.517  1.00  0.00     0.017 A 
ATOM      8  C   UNL     1       5.492  -0.585   0.621  1.00  0.00    -0.029 A 
ATOM      9  C   UNL     1       6.731   0.223   0.887  1.00  0.00     0.097 C 
ATOM     10  N   UNL     1       5.392   2.366   0.785  1.00  0.00    -0.322 N 
ATOM     11  C   UNL     1       6.391   1.526   1.601  1.00  0.00     0.268 C 
ATOM     12  C   UNL     1       5.119   3.646   1.586  1.00  0.00     0.334 C 
ATOM     13  C   UNL     1       6.033   2.759  -0.551  1.00  0.00     0.334 C 
BRANCH   3  14
ATOM     14  O   UNL     1       2.156  -3.091   0.480  1.00  0.00    -0.450 OA
BRANCH  14  15
ATOM     15  C   UNL     1       1.012  -2.759  -0.207  1.00  0.00     0.169 A 
ATOM     16  C   UNL     1       0.893  -2.981  -1.581  1.00  0.00     0.161 A 
ATOM     17  C   UNL     1      -0.341  -2.731  -2.187  1.00  0.00     0.051 A 
ATOM     18  C   UNL     1      -1.440  -2.279  -1.435  1.00  0.00     0.008 A 
ATOM     19  C   UNL     1      -0.085  -2.327   0.546  1.00  0.00     0.055 A 
ATOM     20  C   UNL     1      -1.327  -2.056  -0.059  1.00  0.00    -0.038 A 
BRANCH  16  21
ATOM     21  O   UNL     1       2.012  -3.419  -2.233  1.00  0.00    -0.493 OA
ATOM     22  C   UNL     1       1.827  -3.994  -3.522  1.00  0.00     0.278 C 
ENDBRANCH  16  21
BRANCH  20  23
ATOM     23  C   UNL     1      -2.428  -1.537   0.849  1.00  0.00     0.106 CG0
ATOM     24  G   UNL     1      -3.855  -1.212   0.287  1.00  0.00     0.000 G0
ENDBRANCH  20  23
ENDBRANCH  14  15
ENDBRANCH   3  14
BRANCH   4  25
ATOM     25  O   UNL     1       4.596  -4.170   0.429  1.00  0.00    -0.493 OA
ATOM     26  C   UNL     1       5.497  -4.678  -0.552  1.00  0.00     0.278 C 
ENDBRANCH   4  25
ENDBRANCH   1   2
BRANCH   1  27
ATOM     27  C   UNL     1       1.733   1.857  -0.642  1.00  0.00    -0.041 A 
ATOM     28  C   UNL     1       1.220   1.288  -1.815  1.00  0.00     0.008 A 
ATOM     29  C   UNL     1       0.853   2.142   0.413  1.00  0.00     0.008 A 
ATOM     30  C   UNL     1      -0.133   0.978  -1.915  1.00  0.00     0.047 A 
ATOM     31  C   UNL     1      -0.504   1.809   0.318  1.00  0.00     0.047 A 
ATOM     32  C   UNL     1      -0.998   1.224  -0.848  1.00  0.00     0.127 A 
BRANCH  32  33
ATOM     33  O   UNL     1      -2.280   0.758  -1.038  1.00  0.00    -0.453 OA
BRANCH  33  34
ATOM     34  C   UNL     1      -3.339   1.245  -0.302  1.00  0.00     0.182 A 
ATOM     35  C   UNL     1      -4.208   0.289   0.279  1.00  0.00     0.060 A 
ATOM     36  C   UNL     1      -3.669   2.616  -0.324  1.00  0.00     0.204 A 
ATOM     37  C   UNL     1      -3.855  -1.212   0.287  1.00  0.00     0.225 CG0
ATOM     38  C   UNL     1      -5.455   0.753   0.747  1.00  0.00    -0.026 A 
ATOM     39  C   UNL     1      -4.843   3.075   0.287  1.00  0.00     0.164 A 
ATOM     40  N   UNL     1      -4.936  -2.121   1.037  1.00  0.00    -0.322 N 
ATOM     41  C   UNL     1      -5.738   2.135   0.794  1.00  0.00     0.055 A 
ATOM     42  C   UNL     1      -6.545  -0.191   1.186  1.00  0.00     0.097 C 
ATOM     43  C   UNL     1      -6.331  -1.604   0.656  1.00  0.00     0.268 C 
ATOM     44  C   UNL     1      -4.821  -3.564   0.535  1.00  0.00     0.334 C 
ATOM     45  C   UNL     1      -4.794  -2.122   2.565  1.00  0.00     0.334 C 
ATOM     46  G   UNL     1      -2.428  -1.537   0.849  1.00  0.00     0.000 G0
BRANCH  36  47
ATOM     47  O   UNL     1      -2.794   3.491  -0.924  1.00  0.00    -0.490 OA
ATOM     48  C   UNL     1      -3.345   4.072  -2.107  1.00  0.00     0.278 C 
ENDBRANCH  36  47
BRANCH  39  49
ATOM     49  O   UNL     1      -5.035   4.429   0.313  1.00  0.00    -0.493 OA
ATOM     50  C   UNL     1      -6.216   4.928   0.929  1.00  0.00     0.278 C 
ENDBRANCH  39  49
ENDBRANCH  33  34
ENDBRANCH  32  33
ENDBRANCH   1  27
TORSDOF 4
