REMARK SMILES CC(C=C(c1cccs1)c1cccs1)N(C)C
REMARK SMILES IDX 1 1 2 2 3 3 4 4 5 5 6 6 9 7 7 8 8 9 10 10 11 11 14 12 12 13
REMARK SMILES IDX 13 14 15 15 16 16 17 17
REMARK H PARENT
ROOT
ATOM      1  C   UNL     1       2.163   0.300   1.574  1.00  0.00     0.029 C 
ATOM      2  C   UNL     1       1.506   0.215   0.189  1.00  0.00     0.076 C 
ENDROOT
BRANCH   2   3
ATOM      3  C   UNL     1       0.263  -0.648   0.274  1.00  0.00     0.002 C 
ATOM      4  C   UNL     1      -1.030  -0.272   0.151  1.00  0.00     0.006 C 
BRANCH   4   5
ATOM      5  C   UNL     1      -2.049  -1.274   0.309  1.00  0.00     0.035 A 
ATOM      6  C   UNL     1      -3.050  -1.634  -0.580  1.00  0.00     0.020 A 
ATOM      7  S   UNL     1      -2.202  -2.173   1.776  1.00  0.00    -0.144 S 
ATOM      8  C   UNL     1      -3.908  -2.654  -0.076  1.00  0.00     0.012 A 
ATOM      9  C   UNL     1      -3.554  -3.040   1.195  1.00  0.00     0.065 A 
ENDBRANCH   4   5
BRANCH   4  10
ATOM     10  C   UNL     1      -1.357   1.096  -0.119  1.00  0.00     0.035 A 
ATOM     11  C   UNL     1      -1.711   2.091   0.777  1.00  0.00     0.020 A 
ATOM     12  S   UNL     1      -1.387   1.692  -1.736  1.00  0.00    -0.144 S 
ATOM     13  C   UNL     1      -1.982   3.338   0.142  1.00  0.00     0.012 A 
ATOM     14  C   UNL     1      -1.839   3.260  -1.224  1.00  0.00     0.065 A 
ENDBRANCH   4  10
ENDBRANCH   2   3
BRANCH   2  15
ATOM     15  N   UNL     1       2.383  -0.277  -0.895  1.00  0.00    -0.303 NA
ATOM     16  C   UNL     1       3.231   0.791  -1.426  1.00  0.00     0.105 C 
ATOM     17  C   UNL     1       3.198  -1.441  -0.552  1.00  0.00     0.105 C 
ENDBRANCH   2  15
TORSDOF 4
