REMARK SMILES CNCC(O)c1cc(OC)c(O)c(OC)c1
REMARK SMILES IDX 4 1 3 2 2 3 1 4 5 6 6 8 7 9 16 10 8 11 13 12 11 13 9 14
REMARK SMILES IDX 10 15 14 16 15 17 12 18
REMARK H PARENT 2 5 5 7 12 19
ROOT
ATOM      1  C   UNL     1       1.599  -0.103   0.110  1.00  0.00     0.158 C 
ENDROOT
BRANCH   1   2
ATOM      2  C   UNL     1       1.864   0.780   1.358  1.00  0.00     0.117 C 
BRANCH   2   3
ATOM      3  N   UNL     1       3.173   0.582   2.014  1.00  0.00    -0.317 NA
ATOM      4  C   UNL     1       4.289   0.930   1.142  1.00  0.00     0.101 C 
ATOM      5  H   UNL     1       3.208   1.186   2.836  1.00  0.00     0.122 HD
ENDBRANCH   2   3
ENDBRANCH   1   2
BRANCH   1   6
ATOM      6  O   UNL     1       2.254   0.443  -1.041  1.00  0.00    -0.387 OA
ATOM      7  H   UNL     1       1.903  -0.033  -1.813  1.00  0.00     0.211 HD
ENDBRANCH   1   6
BRANCH   1   8
ATOM      8  C   UNL     1       0.115  -0.216  -0.190  1.00  0.00    -0.011 A 
ATOM      9  C   UNL     1      -0.569  -1.412   0.093  1.00  0.00     0.057 A 
ATOM     10  C   UNL     1      -0.593   0.874  -0.734  1.00  0.00     0.057 A 
ATOM     11  C   UNL     1      -1.934  -1.521  -0.170  1.00  0.00     0.164 A 
ATOM     12  C   UNL     1      -1.960   0.780  -1.005  1.00  0.00     0.164 A 
ATOM     13  C   UNL     1      -2.613  -0.423  -0.718  1.00  0.00     0.200 A 
BRANCH  11  14
ATOM     14  O   UNL     1      -2.713  -2.628   0.059  1.00  0.00    -0.493 OA
ATOM     15  C   UNL     1      -2.069  -3.758   0.636  1.00  0.00     0.278 C 
ENDBRANCH  11  14
BRANCH  12  16
ATOM     16  O   UNL     1      -2.729   1.781  -1.535  1.00  0.00    -0.493 OA
ATOM     17  C   UNL     1      -2.088   3.012  -1.837  1.00  0.00     0.278 C 
ENDBRANCH  12  16
BRANCH  13  18
ATOM     18  O   UNL     1      -3.959  -0.543  -0.974  1.00  0.00    -0.502 OA
ATOM     19  H   UNL     1      -4.192  -1.449  -0.697  1.00  0.00     0.293 HD
ENDBRANCH  13  18
ENDBRANCH   1   8
TORSDOF 7
