REMARK SMILES CCNC(C)C(O)c1ccc(O)c(O)c1
REMARK SMILES IDX 4 1 5 2 3 3 2 5 1 6 6 7 7 8 8 10 15 11 9 12 13 13 10 14
REMARK SMILES IDX 11 15 14 16 12 18
REMARK H PARENT 3 4 7 9 14 17 12 19
ROOT
ATOM      1  C   UNL     1      -1.360  -1.009   0.300  1.00  0.00     0.083 C 
ATOM      2  C   UNL     1      -2.311  -2.059   0.895  1.00  0.00     0.027 C 
ENDROOT
BRANCH   1   3
ATOM      3  N   UNL     1      -1.407   0.232   1.107  1.00  0.00    -0.312 NA
ATOM      4  H   UNL     1      -0.591   0.807   0.889  1.00  0.00     0.123 HD
BRANCH   3   5
ATOM      5  C   UNL     1      -2.603   1.050   0.887  1.00  0.00     0.078 C 
ATOM      6  C   UNL     1      -2.559   1.831  -0.420  1.00  0.00     0.020 C 
ENDBRANCH   3   5
ENDBRANCH   1   3
BRANCH   1   7
ATOM      7  C   UNL     1       0.088  -1.602   0.228  1.00  0.00     0.161 C 
BRANCH   7   8
ATOM      8  O   UNL     1       0.099  -2.789  -0.574  1.00  0.00    -0.387 OA
ATOM      9  H   UNL     1       1.026  -2.961  -0.817  1.00  0.00     0.211 HD
ENDBRANCH   7   8
BRANCH   7  10
ATOM     10  C   UNL     1       1.114  -0.639  -0.346  1.00  0.00    -0.014 A 
ATOM     11  C   UNL     1       2.134  -0.124   0.470  1.00  0.00     0.056 A 
ATOM     12  C   UNL     1       1.055  -0.243  -1.693  1.00  0.00     0.010 A 
ATOM     13  C   UNL     1       3.067   0.769  -0.056  1.00  0.00     0.157 A 
ATOM     14  C   UNL     1       1.993   0.650  -2.217  1.00  0.00     0.050 A 
ATOM     15  C   UNL     1       2.997   1.154  -1.394  1.00  0.00     0.157 A 
BRANCH  13  16
ATOM     16  O   UNL     1       4.059   1.277   0.736  1.00  0.00    -0.504 OA
ATOM     17  H   UNL     1       3.964   0.926   1.634  1.00  0.00     0.293 HD
ENDBRANCH  13  16
BRANCH  15  18
ATOM     18  O   UNL     1       3.922   2.030  -1.889  1.00  0.00    -0.504 OA
ATOM     19  H   UNL     1       3.738   2.189  -2.827  1.00  0.00     0.293 HD
ENDBRANCH  15  18
ENDBRANCH   7  10
ENDBRANCH   1   7
TORSDOF 7
