REMARK SMILES Cn1c(=O)c2c(ncn2CC(O)CO)n(C)c1=O
REMARK SMILES IDX 11 1 10 2 9 3 15 4 6 5 17 6 5 7 7 8 2 9 18 10 3 11 8 12 4 13
REMARK SMILES IDX 16 14 1 15 12 16 13 18 14 19
REMARK H PARENT 12 17 14 20
ROOT
ATOM      1  C   UNL     1       2.871   0.023  -0.110  1.00  0.00     0.159 C 
ENDROOT
BRANCH   1   2
ATOM      2  C   UNL     1       1.855  -0.049   1.039  1.00  0.00     0.158 C 
BRANCH   2   3
ATOM      3  N   UNL     1       0.631  -0.727   0.648  1.00  0.00    -0.322 N 
ATOM      4  N   UNL     1      -2.654  -1.077  -0.460  1.00  0.00    -0.279 N 
ATOM      5  C   UNL     1      -1.360  -1.236  -0.026  1.00  0.00     0.167 A 
ATOM      6  C   UNL     1      -3.171   0.209  -0.610  1.00  0.00     0.332 C 
ATOM      7  C   UNL     1      -0.564  -0.172   0.280  1.00  0.00     0.152 A 
ATOM      8  N   UNL     1      -0.726  -2.426   0.166  1.00  0.00    -0.218 NA
ATOM      9  N   UNL     1      -2.306   1.285  -0.332  1.00  0.00    -0.261 N 
ATOM     10  O   UNL     1      -4.338   0.404  -0.964  1.00  0.00    -0.247 OA
ATOM     11  C   UNL     1      -1.010   1.177   0.187  1.00  0.00     0.282 C 
ATOM     12  C   UNL     1       0.477  -2.090   0.582  1.00  0.00     0.202 A 
ATOM     13  O   UNL     1      -0.343   2.139   0.557  1.00  0.00    -0.267 OA
ATOM     14  C   UNL     1      -3.475  -2.241  -0.741  1.00  0.00     0.157 C 
ATOM     15  C   UNL     1      -2.857   2.618  -0.481  1.00  0.00     0.159 C 
ENDBRANCH   2   3
ENDBRANCH   1   2
BRANCH   1  16
ATOM     16  O   UNL     1       2.367   0.847  -1.163  1.00  0.00    -0.389 OA
ATOM     17  H   UNL     1       2.943   0.727  -1.938  1.00  0.00     0.211 HD
ENDBRANCH   1  16
BRANCH   1  18
ATOM     18  C   UNL     1       4.202   0.597   0.384  1.00  0.00     0.189 C 
BRANCH  18  19
ATOM     19  O   UNL     1       4.791  -0.269   1.345  1.00  0.00    -0.394 OA
ATOM     20  H   UNL     1       5.629   0.143   1.624  1.00  0.00     0.210 HD
ENDBRANCH  18  19
ENDBRANCH   1  18
TORSDOF 5
