REMARK SMILES [O-][n+]1ccccc1SSc1cccc[n+]1[O-]
REMARK SMILES IDX 8 1 7 2 2 3 3 4 4 5 6 6 5 7 1 8 9 9 10 10 11 11 15 12 12 13
REMARK SMILES IDX 14 14 13 15 16 16
REMARK H PARENT
ROOT
ATOM      1  S   UNL     1      -0.725  -2.448  -0.610  1.00  0.00     0.024 SA
ENDROOT
BRANCH   1   2
ATOM      2  C   UNL     1      -1.742  -0.993  -0.399  1.00  0.00     0.262 A 
ATOM      3  N   UNL     1      -1.404   0.210  -1.034  1.00  0.00    -0.166 N 
ATOM      4  C   UNL     1      -2.217   1.319  -0.833  1.00  0.00     0.322 A 
ATOM      5  C   UNL     1      -3.354   1.263  -0.030  1.00  0.00     0.072 A 
ATOM      6  C   UNL     1      -2.891  -1.058   0.409  1.00  0.00     0.089 A 
ATOM      7  C   UNL     1      -3.691   0.068   0.590  1.00  0.00     0.014 A 
ATOM      8  O   UNL     1      -0.384   0.322  -1.801  1.00  0.00    -0.618 OA
ENDBRANCH   1   2
BRANCH   1   9
ATOM      9  S   UNL     1       0.521  -2.306   1.023  1.00  0.00     0.024 SA
BRANCH   9  10
ATOM     10  C   UNL     1       1.656  -1.032   0.485  1.00  0.00     0.262 A 
ATOM     11  C   UNL     1       2.786  -1.383  -0.272  1.00  0.00     0.089 A 
ATOM     12  N   UNL     1       1.427   0.310   0.815  1.00  0.00    -0.166 N 
ATOM     13  C   UNL     1       3.676  -0.403  -0.706  1.00  0.00     0.014 A 
ATOM     14  C   UNL     1       2.328   1.268   0.367  1.00  0.00     0.322 A 
ATOM     15  C   UNL     1       3.448   0.929  -0.389  1.00  0.00     0.072 A 
ATOM     16  O   UNL     1       0.427   0.686   1.524  1.00  0.00    -0.618 OA
ENDBRANCH   9  10
ENDBRANCH   1   9
TORSDOF 3
