REMARK SMILES CC[C@H]1OC(=O)[C@H](C)[C@@H](O[C@H]2C[C@@](C)(OC)[C@@H](O)[C@H](C)O2)[C@H](C)[C@@H](O[C@@H]2O[C@H](C)C[C@H](N(C)C)[C@H]2O)[C@](C)(O)C[C@@H](C)[C@@H]2N[C@@H](COCCOC)O[C@H]([C@H]2C)[C@]1(C)O
REMARK SMILES IDX 24 1 22 2 23 3 9 4 7 5 8 6 5 7 6 8 4 9 3 10 2 11 1 12 56 13
REMARK SMILES IDX 57 14 58 16 10 18 11 19 12 20 21 21 13 22 19 23 17 24 14 25
REMARK SMILES IDX 20 26 15 27 16 28 18 29 25 31 26 32 27 33 35 34 28 35 31 36
REMARK SMILES IDX 30 37 29 38 36 39 32 41 33 42 34 43 37 44 38 45 39 46 40 48
REMARK SMILES IDX 41 49 42 50 43 51 44 52 54 53 45 54 53 55 52 56 55 58 46 60
REMARK SMILES IDX 47 61 48 62 49 63 50 64 51 65
REMARK H PARENT 58 17 18 30 36 40 39 47 44 57
REMARK Flexibility Score:   95.900
ROOT
ATOM      1  C   UNL     1      -1.268   0.944  -1.786  1.00  0.00     0.158 C 
ENDROOT
BRANCH   1   2
ATOM      2  C   UNL     1      -1.757  -0.544  -1.746  1.00  0.00     0.048 C 
ATOM      3  C   UNL     1      -1.465  -1.322  -3.041  1.00  0.00     0.013 C 
BRANCH   2   4
ATOM      4  C   UNL     1      -1.592  -1.475  -0.491  1.00  0.00     0.141 C 
BRANCH   4   5
ATOM      5  C   UNL     1      -0.574  -1.090   0.617  1.00  0.00     0.125 C 
ATOM      6  C   UNL     1      -0.931  -1.731   1.973  1.00  0.00     0.023 C 
BRANCH   5   7
ATOM      7  C   UNL     1       0.814  -1.530   0.169  1.00  0.00     0.311 C 
ATOM      8  O   UNL     1       1.194  -1.481  -0.994  1.00  0.00    -0.252 OA
BRANCH   7   9
ATOM      9  O   UNL     1       1.601  -1.922   1.209  1.00  0.00    -0.459 OA
BRANCH   9  10
ATOM     10  C   UNL     1       2.856  -2.552   0.890  1.00  0.00     0.210 C 
BRANCH  10  11
ATOM     11  C   UNL     1       2.804  -4.012   1.401  1.00  0.00     0.045 C 
ATOM     12  C   UNL     1       2.220  -4.226   2.792  1.00  0.00     0.008 C 
ENDBRANCH  10  11
BRANCH  10  13
ATOM     13  C   UNL     1       4.086  -1.705   1.337  1.00  0.00     0.125 CG0
ATOM     14  C   UNL     1       4.291  -1.654   2.846  1.00  0.00     0.049 C 
ATOM     15  G   UNL     1       4.084  -0.304   0.635  1.00  0.00     0.000 G0
BRANCH  13  16
ATOM     16  O   UNL     1       5.262  -2.403   0.836  1.00  0.00    -0.384 OA
ATOM     17  H   UNL     1       5.872  -1.697   0.522  1.00  0.00     0.211 HD
ENDBRANCH  13  16
ENDBRANCH  10  13
ENDBRANCH   9  10
ENDBRANCH   7   9
ENDBRANCH   5   7
ENDBRANCH   4   5
BRANCH   4  18
ATOM     18  O   UNL     1      -2.876  -1.660   0.150  1.00  0.00    -0.348 OA
BRANCH  18  19
ATOM     19  C   UNL     1      -3.725  -2.647  -0.433  1.00  0.00     0.253 C 
ATOM     20  C   UNL     1      -4.630  -3.173   0.689  1.00  0.00     0.100 C 
ATOM     21  O   UNL     1      -4.493  -2.106  -1.495  1.00  0.00    -0.347 OA
ATOM     22  C   UNL     1      -5.785  -4.074   0.175  1.00  0.00     0.098 C 
ATOM     23  C   UNL     1      -5.440  -3.004  -2.084  1.00  0.00     0.150 C 
ATOM     24  C   UNL     1      -5.579  -4.348  -1.340  1.00  0.00     0.175 C 
ATOM     25  C   UNL     1      -5.791  -5.384   0.984  1.00  0.00     0.045 C 
ATOM     26  C   UNL     1      -5.052  -3.200  -3.546  1.00  0.00     0.041 C 
BRANCH  22  27
ATOM     27  O   UNL     1      -6.984  -3.336   0.493  1.00  0.00    -0.376 OA
ATOM     28  C   UNL     1      -8.221  -3.817  -0.005  1.00  0.00     0.195 C 
ENDBRANCH  22  27
BRANCH  24  29
ATOM     29  O   UNL     1      -6.599  -5.156  -1.927  1.00  0.00    -0.387 OA
ATOM     30  H   UNL     1      -6.540  -6.043  -1.532  1.00  0.00     0.211 HD
ENDBRANCH  24  29
ENDBRANCH  18  19
ENDBRANCH   4  18
ENDBRANCH   2   4
ENDBRANCH   1   2
BRANCH   1  31
ATOM     31  O   UNL     1      -1.642   1.564  -0.549  1.00  0.00    -0.343 OA
BRANCH  31  32
ATOM     32  C   UNL     1      -2.401   2.774  -0.680  1.00  0.00     0.280 C 
ATOM     33  O   UNL     1      -1.510   3.874  -0.500  1.00  0.00    -0.347 OA
ATOM     34  C   UNL     1      -3.512   2.764   0.394  1.00  0.00     0.188 C 
ATOM     35  C   UNL     1      -2.161   5.139  -0.558  1.00  0.00     0.120 C 
ATOM     36  C   UNL     1      -4.215   4.142   0.457  1.00  0.00     0.092 C 
ATOM     37  C   UNL     1      -3.172   5.259   0.587  1.00  0.00     0.054 C 
ATOM     38  C   UNL     1      -1.089   6.218  -0.457  1.00  0.00     0.039 C 
BRANCH  34  39
ATOM     39  O   UNL     1      -4.506   1.772   0.087  1.00  0.00    -0.386 OA
ATOM     40  H   UNL     1      -5.286   2.022   0.617  1.00  0.00     0.211 HD
ENDBRANCH  34  39
BRANCH  36  41
ATOM     41  N   UNL     1      -5.312   4.133   1.463  1.00  0.00    -0.304 NA
ATOM     42  C   UNL     1      -6.269   5.220   1.241  1.00  0.00     0.105 C 
ATOM     43  C   UNL     1      -4.856   4.141   2.855  1.00  0.00     0.105 C 
ENDBRANCH  36  41
ENDBRANCH  31  32
ENDBRANCH   1  31
BRANCH   1  44
ATOM     44  C   UNL     1       0.200   1.357  -2.257  1.00  0.00     0.089 C 
ATOM     45  C   UNL     1       0.045   2.491  -3.295  1.00  0.00     0.045 C 
BRANCH  44  46
ATOM     46  O   UNL     1       0.850   0.294  -2.954  1.00  0.00    -0.387 OA
ATOM     47  H   UNL     1       1.065  -0.403  -2.300  1.00  0.00     0.211 HD
ENDBRANCH  44  46
BRANCH  44  48
ATOM     48  C   UNL     1       1.107   1.826  -1.082  1.00  0.00     0.042 C 
BRANCH  48  49
ATOM     49  C   UNL     1       2.660   1.866  -1.269  1.00  0.00     0.006 C 
ATOM     50  C   UNL     1       3.072   2.986  -2.239  1.00  0.00     0.009 C 
BRANCH  49  51
ATOM     51  C   UNL     1       3.366   2.057   0.130  1.00  0.00     0.064 C 
ATOM     52  N   UNL     1       4.806   2.386   0.029  1.00  0.00    -0.287 NA
ATOM     53  C   UNL     1       3.186   0.856   1.124  1.00  0.00     0.035 C 
ATOM     54  C   UNL     1       5.616   1.223  -0.331  1.00  0.00     0.212 C 
ATOM     55  C   UNL     1       4.084  -0.304   0.635  1.00  0.00     0.160 CG0
ATOM     56  O   UNL     1       5.441   0.183   0.637  1.00  0.00    -0.354 OA
ATOM     57  H   UNL     1       5.127   2.691   0.945  1.00  0.00     0.125 HD
ATOM     58  C   UNL     1       3.491   1.349   2.550  1.00  0.00     0.012 C 
ATOM     59  G   UNL     1       4.086  -1.705   1.337  1.00  0.00     0.000 G0
BRANCH  54  60
ATOM     60  C   UNL     1       7.120   1.581  -0.349  1.00  0.00     0.208 C 
BRANCH  60  61
ATOM     61  O   UNL     1       7.875   0.429  -0.757  1.00  0.00    -0.375 OA
BRANCH  61  62
ATOM     62  C   UNL     1       9.285   0.667  -0.701  1.00  0.00     0.188 C 
BRANCH  62  63
ATOM     63  C   UNL     1      10.031  -0.663  -0.847  1.00  0.00     0.188 C 
BRANCH  63  64
ATOM     64  O   UNL     1      10.152  -1.370   0.393  1.00  0.00    -0.382 OA
ATOM     65  C   UNL     1       8.919  -1.915   0.852  1.00  0.00     0.195 C 
ENDBRANCH  63  64
ENDBRANCH  62  63
ENDBRANCH  61  62
ENDBRANCH  60  61
ENDBRANCH  54  60
ENDBRANCH  49  51
ENDBRANCH  48  49
ENDBRANCH  44  48
ENDBRANCH   1  44
TORSDOF 16
