REMARK SMILES CN(CCCCCCN(C)C(=O)Oc1ccc[n+](C)c1)C(=O)Oc1ccc[n+](C)c1
REMARK SMILES IDX 5 1 4 2 3 3 2 4 1 5 21 6 22 7 23 8 24 9 30 10 25 11 28 12
REMARK SMILES IDX 26 13 27 14 29 15 6 16 7 17 8 18 9 19 10 20 11 21 12 22
REMARK SMILES IDX 13 23 14 24 20 25 15 26 18 27 16 28 17 29 19 30
REMARK H PARENT
ROOT
ATOM      1  C   UNL     1      -0.564   0.375  -0.820  1.00  0.00     0.002 C 
ENDROOT
BRANCH   1   2
ATOM      2  C   UNL     1      -1.709   1.113  -0.118  1.00  0.00     0.022 C 
BRANCH   2   3
ATOM      3  C   UNL     1      -2.762   1.664  -1.087  1.00  0.00     0.123 C 
BRANCH   3   4
ATOM      4  N   UNL     1      -3.571   0.631  -1.736  1.00  0.00    -0.311 N 
ATOM      5  C   UNL     1      -3.244   0.284  -3.110  1.00  0.00     0.150 C 
BRANCH   4   6
ATOM      6  C   UNL     1      -4.642   0.009  -1.115  1.00  0.00     0.415 C 
ATOM      7  O   UNL     1      -5.333  -0.863  -1.631  1.00  0.00    -0.224 OA
BRANCH   6   8
ATOM      8  O   UNL     1      -4.877   0.491   0.177  1.00  0.00    -0.404 OA
BRANCH   8   9
ATOM      9  C   UNL     1      -5.970  -0.015   0.903  1.00  0.00     0.196 A 
ATOM     10  C   UNL     1      -7.216  -0.276   0.335  1.00  0.00     0.355 A 
ATOM     11  C   UNL     1      -5.781  -0.199   2.266  1.00  0.00     0.060 A 
ATOM     12  N   UNL     1      -8.230  -0.746   1.101  1.00  0.00    -0.205 N 
ATOM     13  C   UNL     1      -6.836  -0.678   3.034  1.00  0.00     0.075 A 
ATOM     14  C   UNL     1      -8.059  -0.953   2.426  1.00  0.00     0.308 A 
ATOM     15  C   UNL     1      -9.522  -1.050   0.463  1.00  0.00     0.439 C 
ENDBRANCH   8   9
ENDBRANCH   6   8
ENDBRANCH   4   6
ENDBRANCH   3   4
ENDBRANCH   2   3
ENDBRANCH   1   2
BRANCH   1  16
ATOM     16  C   UNL     1       0.549   0.005   0.166  1.00  0.00     0.002 C 
BRANCH  16  17
ATOM     17  C   UNL     1       1.677  -0.819  -0.466  1.00  0.00     0.022 C 
BRANCH  17  18
ATOM     18  C   UNL     1       2.483  -0.116  -1.564  1.00  0.00     0.123 C 
BRANCH  18  19
ATOM     19  N   UNL     1       3.289   1.005  -1.080  1.00  0.00    -0.311 N 
ATOM     20  C   UNL     1       2.798   2.350  -1.333  1.00  0.00     0.150 C 
BRANCH  19  21
ATOM     21  C   UNL     1       4.507   0.839  -0.439  1.00  0.00     0.415 C 
ATOM     22  O   UNL     1       5.207   1.759  -0.028  1.00  0.00    -0.224 OA
BRANCH  21  23
ATOM     23  O   UNL     1       4.878  -0.504  -0.313  1.00  0.00    -0.404 OA
BRANCH  23  24
ATOM     24  C   UNL     1       6.101  -0.807   0.311  1.00  0.00     0.196 A 
ATOM     25  C   UNL     1       7.279  -0.099   0.072  1.00  0.00     0.355 A 
ATOM     26  C   UNL     1       6.114  -1.905   1.160  1.00  0.00     0.060 A 
ATOM     27  N   UNL     1       8.426  -0.454   0.700  1.00  0.00    -0.205 N 
ATOM     28  C   UNL     1       7.304  -2.254   1.789  1.00  0.00     0.075 A 
ATOM     29  C   UNL     1       8.455  -1.507   1.549  1.00  0.00     0.308 A 
ATOM     30  C   UNL     1       9.642   0.342   0.461  1.00  0.00     0.439 C 
ENDBRANCH  23  24
ENDBRANCH  21  23
ENDBRANCH  19  21
ENDBRANCH  18  19
ENDBRANCH  17  18
ENDBRANCH  16  17
ENDBRANCH   1  16
TORSDOF 13
