REMARK SMILES CCCCCCCCCCCC[N+](C)(C)CCOc1ccc(Cl)cc1
REMARK SMILES IDX 9 1 8 2 7 3 6 4 5 5 4 6 3 7 2 8 1 9 10 10 11 11 12 12 13 13
REMARK SMILES IDX 14 14 15 15 16 16 17 17 18 18 19 19 20 20 25 21 21 22 24 23
REMARK SMILES IDX 22 24 23 25
REMARK H PARENT
ROOT
ATOM      1  C   UNL     1      -1.273  -0.607   1.754  1.00  0.00     0.000 C 
ENDROOT
BRANCH   1   2
ATOM      2  C   UNL     1      -2.402  -0.663   2.790  1.00  0.00     0.000 C 
BRANCH   2   3
ATOM      3  C   UNL     1      -3.822  -0.798   2.230  1.00  0.00     0.000 C 
BRANCH   3   4
ATOM      4  C   UNL     1      -4.029  -2.071   1.404  1.00  0.00    -0.000 C 
BRANCH   4   5
ATOM      5  C   UNL     1      -5.486  -2.273   0.970  1.00  0.00    -0.000 C 
BRANCH   5   6
ATOM      6  C   UNL     1      -5.798  -1.813  -0.459  1.00  0.00    -0.000 C 
BRANCH   6   7
ATOM      7  C   UNL     1      -5.644  -0.309  -0.684  1.00  0.00    -0.000 C 
BRANCH   7   8
ATOM      8  C   UNL     1      -6.150   0.097  -2.069  1.00  0.00    -0.003 C 
ATOM      9  C   UNL     1      -5.958   1.583  -2.321  1.00  0.00     0.004 C 
ENDBRANCH   7   8
ENDBRANCH   6   7
ENDBRANCH   5   6
ENDBRANCH   4   5
ENDBRANCH   3   4
ENDBRANCH   2   3
ENDBRANCH   1   2
BRANCH   1  10
ATOM     10  C   UNL     1      -1.399   0.570   0.783  1.00  0.00     0.006 C 
BRANCH  10  11
ATOM     11  C   UNL     1      -0.245   0.664  -0.225  1.00  0.00     0.061 C 
BRANCH  11  12
ATOM     12  C   UNL     1       1.087   1.025   0.440  1.00  0.00     0.263 C 
BRANCH  12  13
ATOM     13  N   UNL     1       2.246   1.241  -0.555  1.00  0.00    -0.326 N 
ATOM     14  C   UNL     1       1.909   2.357  -1.552  1.00  0.00     0.334 C 
ATOM     15  C   UNL     1       2.539  -0.035  -1.344  1.00  0.00     0.334 C 
BRANCH  13  16
ATOM     16  C   UNL     1       3.527   1.716   0.215  1.00  0.00     0.305 C 
BRANCH  16  17
ATOM     17  C   UNL     1       4.108   0.716   1.233  1.00  0.00     0.290 C 
BRANCH  17  18
ATOM     18  O   UNL     1       4.647  -0.445   0.602  1.00  0.00    -0.488 OA
BRANCH  18  19
ATOM     19  C   UNL     1       5.926  -0.416   0.125  1.00  0.00     0.119 A 
ATOM     20  C   UNL     1       6.819   0.655   0.199  1.00  0.00     0.048 A 
ATOM     21  C   UNL     1       6.332  -1.600  -0.501  1.00  0.00     0.048 A 
ATOM     22  C   UNL     1       8.101   0.541  -0.352  1.00  0.00     0.024 A 
ATOM     23  C   UNL     1       7.609  -1.715  -1.055  1.00  0.00     0.024 A 
ATOM     24  C   UNL     1       8.491  -0.641  -0.978  1.00  0.00     0.041 A 
ATOM     25  Cl  UNL     1      10.065  -0.774  -1.651  1.00  0.00    -0.084 Cl
ENDBRANCH  18  19
ENDBRANCH  17  18
ENDBRANCH  16  17
ENDBRANCH  13  16
ENDBRANCH  12  13
ENDBRANCH  11  12
ENDBRANCH  10  11
ENDBRANCH   1  10
TORSDOF 15
