REMARK SMILES Cn1c(Cn2ccc(C(F)(F)F)c(Oc3cc(Cl)cc(C#N)c3)c2=O)n[nH]c1=O
REMARK SMILES IDX 5 1 6 2 7 3 8 4 13 5 24 6 25 7 4 8 3 9 2 10 28 11 29 12
REMARK SMILES IDX 27 13 26 14 1 15 14 17 15 18 23 19 16 20 20 21 17 22 19 23
REMARK SMILES IDX 21 24 22 25 18 26 9 27 10 28 11 29 12 30
REMARK H PARENT 27 16
ROOT
ATOM      1  N   UNL     1       0.937   1.261   0.529  1.00  0.00    -0.305 N 
ATOM      2  C   UNL     1       0.877   2.415  -0.228  1.00  0.00     0.090 C 
ATOM      3  C   UNL     1      -0.003   2.543  -1.224  1.00  0.00     0.035 C 
ATOM      4  C   UNL     1      -0.937   1.474  -1.536  1.00  0.00     0.105 C 
ATOM      5  C   UNL     1      -0.934   0.344  -0.802  1.00  0.00     0.204 C 
ATOM      6  C   UNL     1       0.098   0.175   0.294  1.00  0.00     0.294 C 
ATOM      7  O   UNL     1       0.176  -0.877   0.926  1.00  0.00    -0.265 OA
ENDROOT
BRANCH   1   8
ATOM      8  C   UNL     1       1.949   1.166   1.587  1.00  0.00     0.203 C 
BRANCH   8   9
ATOM      9  C   UNL     1       3.324   0.950   0.991  1.00  0.00     0.153 C 
ATOM     10  N   UNL     1       3.802  -0.260   0.638  1.00  0.00    -0.281 N 
ATOM     11  C   UNL     1       5.042  -0.029   0.103  1.00  0.00     0.343 C 
ATOM     12  O   UNL     1       5.827  -0.835  -0.366  1.00  0.00    -0.246 OA
ATOM     13  N   UNL     1       5.232   1.343   0.196  1.00  0.00    -0.227 N 
ATOM     14  N   UNL     1       4.137   1.944   0.748  1.00  0.00    -0.156 NA
ATOM     15  C   UNL     1       3.193  -1.566   0.729  1.00  0.00     0.157 C 
ATOM     16  H   UNL     1       6.046   1.852  -0.121  1.00  0.00     0.195 HD
ENDBRANCH   8   9
ENDBRANCH   1   8
BRANCH   5  17
ATOM     17  O   UNL     1      -1.799  -0.705  -1.091  1.00  0.00    -0.451 OA
BRANCH  17  18
ATOM     18  C   UNL     1      -2.534  -1.255  -0.066  1.00  0.00     0.130 A 
ATOM     19  C   UNL     1      -3.145  -0.489   0.930  1.00  0.00     0.066 A 
ATOM     20  C   UNL     1      -2.703  -2.639  -0.092  1.00  0.00     0.067 A 
ATOM     21  C   UNL     1      -3.895  -1.121   1.930  1.00  0.00     0.057 A 
ATOM     22  C   UNL     1      -3.452  -3.260   0.904  1.00  0.00     0.046 A 
ATOM     23  C   UNL     1      -4.047  -2.511   1.918  1.00  0.00     0.040 A 
ATOM     24  C   UNL     1      -4.509  -0.340   2.963  1.00  0.00     0.099 C 
ATOM     25  N   UNL     1      -5.002   0.299   3.796  1.00  0.00    -0.192 NA
ATOM     26  Cl  UNL     1      -3.649  -4.969   0.882  1.00  0.00    -0.084 Cl
ENDBRANCH  17  18
ENDBRANCH   5  17
BRANCH   4  27
ATOM     27  C   UNL     1      -1.872   1.740  -2.678  1.00  0.00     0.420 C 
ATOM     28  F   UNL     1      -1.190   1.950  -3.835  1.00  0.00    -0.166 F 
ATOM     29  F   UNL     1      -2.760   0.747  -2.926  1.00  0.00    -0.166 F 
ATOM     30  F   UNL     1      -2.606   2.863  -2.455  1.00  0.00    -0.166 F 
ENDBRANCH   4  27
TORSDOF 5
