REMARK SMILES CN(C)CC/C=C1\c2ccccc2CSc2ccccc21
REMARK SMILES IDX 4 1 2 2 1 3 3 4 5 5 6 6 7 7 8 8 21 9 9 10 13 11 20 12 16 13
REMARK SMILES IDX 10 14 12 15 14 16 19 17 15 18 17 19 11 20 18 21
REMARK H PARENT
ROOT
ATOM      1  C   UNL     1       2.188   0.334  -1.473  1.00  0.00     0.088 C 
ENDROOT
BRANCH   1   2
ATOM      2  N   UNL     1       3.416  -0.398  -1.824  1.00  0.00    -0.309 NA
ATOM      3  C   UNL     1       4.616   0.199  -1.245  1.00  0.00     0.104 C 
ATOM      4  C   UNL     1       3.332  -1.821  -1.505  1.00  0.00     0.104 C 
ENDBRANCH   1   2
BRANCH   1   5
ATOM      5  C   UNL     1       1.826   0.418   0.022  1.00  0.00     0.043 C 
BRANCH   5   6
ATOM      6  C   UNL     1       0.530   1.166   0.226  1.00  0.00    -0.016 C 
ATOM      7  C   UNL     1      -0.663   0.671   0.628  1.00  0.00    -0.014 C 
ATOM      8  C   UNL     1      -0.812  -0.775   0.878  1.00  0.00    -0.014 A 
ATOM      9  C   UNL     1      -1.825   1.600   0.677  1.00  0.00    -0.004 A 
ATOM     10  C   UNL     1      -0.349  -1.352   2.067  1.00  0.00     0.009 A 
ATOM     11  C   UNL     1      -1.450  -1.569  -0.088  1.00  0.00    -0.030 A 
ATOM     12  C   UNL     1      -1.693   2.750   1.488  1.00  0.00     0.010 A 
ATOM     13  C   UNL     1      -3.050   1.375   0.009  1.00  0.00     0.015 A 
ATOM     14  C   UNL     1      -0.505  -2.720   2.290  1.00  0.00     0.001 A 
ATOM     15  C   UNL     1      -1.607  -2.943   0.149  1.00  0.00     0.005 A 
ATOM     16  C   UNL     1      -1.985  -0.931  -1.341  1.00  0.00     0.111 C 
ATOM     17  C   UNL     1      -2.728   3.674   1.622  1.00  0.00     0.001 A 
ATOM     18  S   UNL     1      -3.525  -0.011  -1.043  1.00  0.00    -0.121 SA
ATOM     19  C   UNL     1      -4.083   2.323   0.163  1.00  0.00     0.016 A 
ATOM     20  C   UNL     1      -1.131  -3.514   1.331  1.00  0.00     0.000 A 
ATOM     21  C   UNL     1      -3.925   3.462   0.955  1.00  0.00     0.001 A 
ENDBRANCH   5   6
ENDBRANCH   1   5
TORSDOF 3
