REMARK SMILES O=C(c1cc(Cl)c(O)c(Cl)c1)N1CS(=O)(=O)c2ccccc21
REMARK SMILES IDX 3 1 11 2 9 3 7 4 5 5 4 6 6 7 10 8 2 9 1 10 12 11 13 12 14 13
REMARK SMILES IDX 22 14 17 15 15 16 16 17 21 18 18 19 20 20 19 21 8 22
REMARK H PARENT 8 23
ROOT
ATOM      1  C   UNL     1       1.795   0.612   0.171  1.00  0.00     0.043 A 
ATOM      2  C   UNL     1       2.523   1.238  -0.844  1.00  0.00     0.038 A 
ATOM      3  C   UNL     1       3.855   0.883  -1.044  1.00  0.00     0.085 A 
ATOM      4  C   UNL     1       4.462  -0.082  -0.232  1.00  0.00     0.152 A 
ATOM      5  C   UNL     1       3.729  -0.685   0.796  1.00  0.00     0.085 A 
ATOM      6  C   UNL     1       2.395  -0.335   1.007  1.00  0.00     0.038 A 
ATOM      7  Cl  UNL     1       4.435  -1.872   1.830  1.00  0.00    -0.080 Cl
ATOM      8  Cl  UNL     1       4.747   1.644  -2.308  1.00  0.00    -0.080 Cl
ENDROOT
BRANCH   1   9
ATOM      9  C   UNL     1       0.394   1.018   0.393  1.00  0.00     0.259 C 
ATOM     10  O   UNL     1       0.230   2.166   0.791  1.00  0.00    -0.269 OA
BRANCH   9  11
ATOM     11  N   UNL     1      -0.596   0.089   0.109  1.00  0.00    -0.292 N 
ATOM     12  C   UNL     1      -0.351  -1.220  -0.541  1.00  0.00     0.268 C 
ATOM     13  S   UNL     1      -1.931  -2.018  -0.880  1.00  0.00     0.198 S 
ATOM     14  C   UNL     1      -1.996   0.309   0.297  1.00  0.00     0.064 A 
ATOM     15  C   UNL     1      -2.834  -0.711  -0.164  1.00  0.00     0.092 A 
ATOM     16  O   UNL     1      -2.193  -2.021  -2.304  1.00  0.00    -0.222 OA
ATOM     17  O   UNL     1      -2.089  -3.188  -0.042  1.00  0.00    -0.222 OA
ATOM     18  C   UNL     1      -2.591   1.416   0.888  1.00  0.00     0.028 A 
ATOM     19  C   UNL     1      -4.218  -0.684  -0.069  1.00  0.00     0.022 A 
ATOM     20  C   UNL     1      -3.989   1.475   1.000  1.00  0.00     0.002 A 
ATOM     21  C   UNL     1      -4.797   0.432   0.525  1.00  0.00     0.001 A 
ENDBRANCH   9  11
ENDBRANCH   1   9
BRANCH   4  22
ATOM     22  O   UNL     1       5.770  -0.441  -0.431  1.00  0.00    -0.505 OA
ATOM     23  H   UNL     1       6.127   0.100  -1.160  1.00  0.00     0.293 HD
ENDBRANCH   4  22
TORSDOF 3
