REMARK SMILES COc1cc2nc(N3CCN(C(=O)C4COc5ccccc5O4)CC3)nc(N)c2cc1OC
REMARK SMILES IDX 3 1 31 2 30 3 29 4 27 5 26 6 7 7 6 8 5 9 4 10 2 11 1 12
REMARK SMILES IDX 32 13 33 14 28 15 8 18 9 19 25 20 10 21 24 22 11 23 12 24
REMARK SMILES IDX 13 25 14 26 15 27 23 28 16 29 22 30 17 31 21 32 18 33 20 34
REMARK SMILES IDX 19 35
REMARK H PARENT 28 16 28 17
ROOT
ATOM      1  C   UNL     1       5.855   1.120   1.076  1.00  0.00     0.162 A 
ATOM      2  C   UNL     1       6.594  -0.033   0.764  1.00  0.00     0.161 A 
ATOM      3  C   UNL     1       5.930  -1.138   0.231  1.00  0.00     0.064 A 
ATOM      4  C   UNL     1       4.532  -1.102   0.008  1.00  0.00     0.047 A 
ATOM      5  C   UNL     1       3.775  -2.145  -0.526  1.00  0.00     0.137 A 
ATOM      6  N   UNL     1       2.448  -2.082  -0.689  1.00  0.00    -0.195 NA
ATOM      7  C   UNL     1       1.824  -0.951  -0.338  1.00  0.00     0.228 A 
ATOM      8  N   UNL     1       2.475   0.111   0.160  1.00  0.00    -0.213 NA
ATOM      9  C   UNL     1       3.799   0.035   0.334  1.00  0.00     0.082 A 
ATOM     10  C   UNL     1       4.472   1.132   0.859  1.00  0.00     0.079 A 
ENDROOT
BRANCH   1  11
ATOM     11  O   UNL     1       6.570   2.174   1.590  1.00  0.00    -0.493 OA
ATOM     12  C   UNL     1       5.857   3.357   1.922  1.00  0.00     0.278 C 
ENDBRANCH   1  11
BRANCH   2  13
ATOM     13  O   UNL     1       7.942   0.022   1.009  1.00  0.00    -0.493 OA
ATOM     14  C   UNL     1       8.696  -1.168   0.829  1.00  0.00     0.278 C 
ENDBRANCH   2  13
BRANCH   5  15
ATOM     15  N   UNL     1       4.362  -3.354  -0.924  1.00  0.00    -0.383 N 
ATOM     16  H   UNL     1       5.084  -3.198  -1.618  1.00  0.00     0.158 HD
ATOM     17  H   UNL     1       3.613  -3.933  -1.296  1.00  0.00     0.158 HD
ENDBRANCH   5  15
BRANCH   7  18
ATOM     18  N   UNL     1       0.457  -0.875  -0.485  1.00  0.00    -0.337 N 
ATOM     19  C   UNL     1      -0.228  -1.874  -1.306  1.00  0.00     0.141 C 
ATOM     20  C   UNL     1      -0.222   0.378  -0.178  1.00  0.00     0.141 C 
ATOM     21  C   UNL     1      -1.442  -1.272  -2.038  1.00  0.00     0.141 C 
ATOM     22  C   UNL     1      -1.735   0.145  -0.007  1.00  0.00     0.141 C 
ATOM     23  N   UNL     1      -2.358  -0.549  -1.144  1.00  0.00    -0.336 N 
ATOM     24  C   UNL     1      -3.729  -0.658  -1.359  1.00  0.00     0.267 C 
ATOM     25  O   UNL     1      -4.176  -1.294  -2.317  1.00  0.00    -0.270 OA
BRANCH  24  26
ATOM     26  C   UNL     1      -4.668   0.071  -0.388  1.00  0.00     0.299 C 
ATOM     27  C   UNL     1      -4.912   1.477  -0.920  1.00  0.00     0.285 C 
ATOM     28  O   UNL     1      -5.917  -0.625  -0.279  1.00  0.00    -0.473 OA
ATOM     29  O   UNL     1      -5.660   2.246   0.033  1.00  0.00    -0.485 OA
ATOM     30  C   UNL     1      -6.869   0.151   0.332  1.00  0.00     0.162 A 
ATOM     31  C   UNL     1      -6.739   1.535   0.496  1.00  0.00     0.161 A 
ATOM     32  C   UNL     1      -8.010  -0.502   0.793  1.00  0.00     0.050 A 
ATOM     33  C   UNL     1      -7.729   2.256   1.161  1.00  0.00     0.050 A 
ATOM     34  C   UNL     1      -9.008   0.222   1.446  1.00  0.00     0.004 A 
ATOM     35  C   UNL     1      -8.865   1.598   1.635  1.00  0.00     0.004 A 
ENDBRANCH  24  26
ENDBRANCH   7  18
TORSDOF 5
