REMARK SMILES CCN1CC(CCN2CCOCC2)C(c2ccccc2)(c2ccccc2)C1=O
REMARK SMILES IDX 3 1 4 2 5 3 14 4 27 5 28 6 2 7 1 8 6 9 7 10 8 11 9 12 13 13
REMARK SMILES IDX 10 14 12 15 11 16 15 17 16 18 20 19 17 20 19 21 18 22 21 23
REMARK SMILES IDX 22 24 26 25 23 26 25 27 24 28
REMARK H PARENT
ROOT
ATOM      1  N   UNL     1      -1.131   2.333   0.593  1.00  0.00    -0.342 N 
ATOM      2  C   UNL     1      -0.033   1.571   1.115  1.00  0.00     0.125 C 
ATOM      3  C   UNL     1       0.044   0.379   0.169  1.00  0.00     0.034 C 
ATOM      4  C   UNL     1      -1.466   0.072  -0.193  1.00  0.00     0.104 C 
ATOM      5  C   UNL     1      -2.051   1.525  -0.074  1.00  0.00     0.238 C 
ATOM      6  O   UNL     1      -3.160   1.906  -0.427  1.00  0.00    -0.273 OA
ENDROOT
BRANCH   1   7
ATOM      7  C   UNL     1      -1.435   3.673   1.059  1.00  0.00     0.116 C 
ATOM      8  C   UNL     1      -2.117   3.680   2.416  1.00  0.00     0.027 C 
ENDBRANCH   1   7
BRANCH   3   9
ATOM      9  C   UNL     1       0.882  -0.779   0.745  1.00  0.00     0.023 C 
BRANCH   9  10
ATOM     10  C   UNL     1       2.350  -0.414   1.031  1.00  0.00     0.085 C 
BRANCH  10  11
ATOM     11  N   UNL     1       3.050   0.126  -0.139  1.00  0.00    -0.299 NA
ATOM     12  C   UNL     1       4.270   0.856   0.274  1.00  0.00     0.113 C 
ATOM     13  C   UNL     1       3.381  -0.901  -1.153  1.00  0.00     0.113 C 
ATOM     14  C   UNL     1       5.261   1.010  -0.889  1.00  0.00     0.175 C 
ATOM     15  C   UNL     1       4.856  -1.334  -1.139  1.00  0.00     0.175 C 
ATOM     16  O   UNL     1       5.767  -0.249  -1.354  1.00  0.00    -0.379 OA
ENDBRANCH  10  11
ENDBRANCH   9  10
ENDBRANCH   3   9
BRANCH   4  17
ATOM     17  C   UNL     1      -1.684  -0.446  -1.641  1.00  0.00    -0.028 A 
ATOM     18  C   UNL     1      -2.997  -0.573  -2.140  1.00  0.00     0.005 A 
ATOM     19  C   UNL     1      -0.635  -0.845  -2.488  1.00  0.00     0.005 A 
ATOM     20  C   UNL     1      -3.248  -1.056  -3.426  1.00  0.00     0.000 A 
ATOM     21  C   UNL     1      -0.886  -1.328  -3.777  1.00  0.00     0.000 A 
ATOM     22  C   UNL     1      -2.191  -1.432  -4.246  1.00  0.00     0.000 A 
ENDBRANCH   4  17
BRANCH   4  23
ATOM     23  C   UNL     1      -2.118  -0.884   0.847  1.00  0.00    -0.028 A 
ATOM     24  C   UNL     1      -2.005  -2.283   0.696  1.00  0.00     0.005 A 
ATOM     25  C   UNL     1      -2.815  -0.412   1.973  1.00  0.00     0.005 A 
ATOM     26  C   UNL     1      -2.561  -3.164   1.627  1.00  0.00     0.000 A 
ATOM     27  C   UNL     1      -3.372  -1.294   2.905  1.00  0.00     0.000 A 
ATOM     28  C   UNL     1      -3.244  -2.669   2.732  1.00  0.00     0.000 A 
ENDBRANCH   4  23
TORSDOF 6
