REMARK SMILES CN(C)CCC=C1c2ccccc2COc2ccccc21
REMARK SMILES IDX 4 1 2 2 1 3 3 4 5 5 6 6 7 7 8 8 21 9 9 10 13 11 16 12 20 13
REMARK SMILES IDX 10 14 12 15 14 16 15 17 17 18 19 19 11 20 18 21
REMARK H PARENT
ROOT
ATOM      1  C   UNL     1       2.575  -0.430  -0.439  1.00  0.00     0.088 C 
ENDROOT
BRANCH   1   2
ATOM      2  N   UNL     1       3.942   0.130  -0.411  1.00  0.00    -0.309 NA
ATOM      3  C   UNL     1       3.926   1.581  -0.205  1.00  0.00     0.104 C 
ATOM      4  C   UNL     1       4.626  -0.178  -1.670  1.00  0.00     0.104 C 
ENDBRANCH   1   2
BRANCH   1   5
ATOM      5  C   UNL     1       1.869  -0.388   0.928  1.00  0.00     0.043 C 
BRANCH   5   6
ATOM      6  C   UNL     1       0.541  -1.105   0.874  1.00  0.00    -0.016 C 
ATOM      7  C   UNL     1      -0.701  -0.575   0.784  1.00  0.00    -0.011 C 
ATOM      8  C   UNL     1      -1.844  -1.511   0.594  1.00  0.00    -0.011 A 
ATOM      9  C   UNL     1      -0.870   0.888   0.665  1.00  0.00     0.024 A 
ATOM     10  C   UNL     1      -1.979  -2.619   1.456  1.00  0.00     0.009 A 
ATOM     11  C   UNL     1      -2.818  -1.302  -0.405  1.00  0.00    -0.003 A 
ATOM     12  C   UNL     1      -1.310   1.417  -0.553  1.00  0.00     0.127 A 
ATOM     13  C   UNL     1      -0.614   1.761   1.728  1.00  0.00     0.012 A 
ATOM     14  C   UNL     1      -3.034  -3.521   1.319  1.00  0.00     0.001 A 
ATOM     15  C   UNL     1      -3.883  -2.221  -0.520  1.00  0.00     0.008 A 
ATOM     16  C   UNL     1      -2.855  -0.095  -1.331  1.00  0.00     0.266 C 
ATOM     17  O   UNL     1      -1.616   0.579  -1.595  1.00  0.00    -0.488 OA
ATOM     18  C   UNL     1      -1.417   2.792  -0.746  1.00  0.00     0.047 A 
ATOM     19  C   UNL     1      -0.746   3.141   1.550  1.00  0.00     0.001 A 
ATOM     20  C   UNL     1      -3.985  -3.324   0.327  1.00  0.00     0.000 A 
ATOM     21  C   UNL     1      -1.136   3.656   0.312  1.00  0.00     0.004 A 
ENDBRANCH   5   6
ENDBRANCH   1   5
TORSDOF 3
