REMARK SMILES CCCCc1oc2ccc(NS(C)(=O)=O)cc2c1C(=O)c1ccc(OCCCN(CCCC)CCCC)cc1
REMARK SMILES IDX 26 1 27 2 28 3 29 4 30 5 31 6 32 7 33 8 34 9 35 10 36 11
REMARK SMILES IDX 37 12 25 13 24 14 23 15 38 16 22 17 39 18 21 19 19 20 20 21
REMARK SMILES IDX 18 22 5 23 17 24 6 25 7 26 16 27 8 28 10 29 9 30 4 31 3 32
REMARK SMILES IDX 2 33 1 34 11 35 12 37 14 38 15 39 13 40
REMARK H PARENT 11 36
ROOT
ATOM      1  C   UNL     1      -2.885  -2.668   0.502  1.00  0.00     0.231 C 
ENDROOT
BRANCH   1   2
ATOM      2  C   UNL     1      -4.398  -2.599   0.294  1.00  0.00     0.057 C 
BRANCH   2   3
ATOM      3  C   UNL     1      -4.825  -1.431  -0.610  1.00  0.00     0.088 C 
BRANCH   3   4
ATOM      4  N   UNL     1      -4.445  -0.115  -0.080  1.00  0.00    -0.303 NA
BRANCH   4   5
ATOM      5  C   UNL     1      -4.213   0.881  -1.139  1.00  0.00     0.084 C 
BRANCH   5   6
ATOM      6  C   UNL     1      -5.221   1.009  -2.297  1.00  0.00     0.015 C 
BRANCH   6   7
ATOM      7  C   UNL     1      -6.625   1.504  -1.953  1.00  0.00    -0.002 C 
ATOM      8  C   UNL     1      -6.647   2.902  -1.355  1.00  0.00     0.004 C 
ENDBRANCH   6   7
ENDBRANCH   5   6
ENDBRANCH   4   5
BRANCH   4   9
ATOM      9  C   UNL     1      -5.288   0.334   1.032  1.00  0.00     0.084 C 
BRANCH   9  10
ATOM     10  C   UNL     1      -4.607   1.408   1.894  1.00  0.00     0.015 C 
BRANCH  10  11
ATOM     11  C   UNL     1      -5.459   1.755   3.117  1.00  0.00    -0.002 C 
ATOM     12  C   UNL     1      -4.815   2.849   3.953  1.00  0.00     0.004 C 
ENDBRANCH  10  11
ENDBRANCH   9  10
ENDBRANCH   4   9
ENDBRANCH   3   4
ENDBRANCH   2   3
ENDBRANCH   1   2
BRANCH   1  13
ATOM     13  O   UNL     1      -2.256  -2.891  -0.763  1.00  0.00    -0.494 OA
BRANCH  13  14
ATOM     14  C   UNL     1      -0.902  -2.715  -0.816  1.00  0.00     0.119 A 
ATOM     15  C   UNL     1      -0.379  -2.580  -2.104  1.00  0.00     0.047 A 
ATOM     16  C   UNL     1      -0.040  -2.695   0.282  1.00  0.00     0.047 A 
ATOM     17  C   UNL     1       0.992  -2.401  -2.299  1.00  0.00     0.016 A 
ATOM     18  C   UNL     1       1.336  -2.522   0.093  1.00  0.00     0.016 A 
ATOM     19  C   UNL     1       1.855  -2.354  -1.198  1.00  0.00     0.023 A 
BRANCH  19  20
ATOM     20  C   UNL     1       3.313  -2.196  -1.446  1.00  0.00     0.197 C 
ATOM     21  O   UNL     1       3.792  -2.691  -2.463  1.00  0.00    -0.288 OA
BRANCH  20  22
ATOM     22  C   UNL     1       4.138  -1.490  -0.477  1.00  0.00     0.072 A 
ATOM     23  C   UNL     1       5.439  -1.854  -0.154  1.00  0.00     0.116 A 
ATOM     24  C   UNL     1       3.864  -0.311   0.292  1.00  0.00     0.034 A 
ATOM     25  O   UNL     1       5.948  -1.019   0.793  1.00  0.00    -0.460 OA
ATOM     26  C   UNL     1       5.003  -0.081   1.053  1.00  0.00     0.135 A 
ATOM     27  C   UNL     1       2.791   0.598   0.423  1.00  0.00     0.039 A 
ATOM     28  C   UNL     1       5.151   0.970   1.954  1.00  0.00     0.050 A 
ATOM     29  C   UNL     1       2.912   1.678   1.310  1.00  0.00     0.049 A 
ATOM     30  C   UNL     1       4.070   1.850   2.073  1.00  0.00     0.030 A 
BRANCH  23  31
ATOM     31  C   UNL     1       6.338  -2.955  -0.599  1.00  0.00     0.076 C 
BRANCH  31  32
ATOM     32  C   UNL     1       7.200  -2.573  -1.805  1.00  0.00     0.008 C 
BRANCH  32  33
ATOM     33  C   UNL     1       8.236  -1.472  -1.553  1.00  0.00    -0.003 C 
ATOM     34  C   UNL     1       9.268  -1.836  -0.497  1.00  0.00     0.004 C 
ENDBRANCH  32  33
ENDBRANCH  31  32
ENDBRANCH  23  31
BRANCH  29  35
ATOM     35  N   UNL     1       1.856   2.620   1.476  1.00  0.00    -0.284 N 
ATOM     36  H   UNL     1       1.840   3.170   2.336  1.00  0.00     0.180 HD
BRANCH  35  37
ATOM     37  S   UNL     1       1.270   3.489   0.158  1.00  0.00     0.229 S 
ATOM     38  O   UNL     1       0.357   4.466   0.714  1.00  0.00    -0.207 OA
ATOM     39  O   UNL     1       0.852   2.581  -0.886  1.00  0.00    -0.207 OA
ATOM     40  C   UNL     1       2.718   4.369  -0.398  1.00  0.00     0.183 C 
ENDBRANCH  35  37
ENDBRANCH  29  35
ENDBRANCH  20  22
ENDBRANCH  19  20
ENDBRANCH  13  14
ENDBRANCH   1  13
TORSDOF 18
