REMARK SMILES CCOc1ccc(/C=C2\NCCc3cc(OCC)c(OCC)cc32)cc1OCC
REMARK SMILES IDX 8 1 9 2 10 3 11 4 12 5 13 6 14 7 15 8 19 9 23 10 24 11 7 13
REMARK SMILES IDX 4 14 26 15 5 16 25 17 6 18 3 19 2 20 1 21 27 22 28 23 29 24
REMARK SMILES IDX 20 25 21 26 22 27 16 28 17 29 18 30
REMARK H PARENT 10 12
ROOT
ATOM      1  C   UNL     1       0.461   0.056  -1.025  1.00  0.00     0.034 C 
ATOM      2  C   UNL     1      -0.265  -0.342   0.043  1.00  0.00     0.042 C 
ATOM      3  N   UNL     1       0.307  -0.988   1.136  1.00  0.00    -0.384 N 
ATOM      4  C   UNL     1      -0.475  -1.701   2.128  1.00  0.00     0.117 C 
ATOM      5  C   UNL     1      -1.670  -0.850   2.539  1.00  0.00     0.057 C 
ATOM      6  C   UNL     1      -2.440  -0.391   1.324  1.00  0.00    -0.033 A 
ATOM      7  C   UNL     1      -3.835  -0.205   1.427  1.00  0.00     0.055 A 
ATOM      8  C   UNL     1      -4.584   0.228   0.334  1.00  0.00     0.161 A 
ATOM      9  C   UNL     1      -3.906   0.501  -0.861  1.00  0.00     0.161 A 
ATOM     10  C   UNL     1      -2.521   0.312  -0.972  1.00  0.00     0.061 A 
ATOM     11  C   UNL     1      -1.752  -0.123   0.116  1.00  0.00     0.005 A 
ATOM     12  H   UNL     1       1.213  -1.402   0.937  1.00  0.00     0.160 HD
ENDROOT
BRANCH   1  13
ATOM     13  C   UNL     1       1.915  -0.123  -1.173  1.00  0.00    -0.020 A 
ATOM     14  C   UNL     1       4.660  -0.525  -1.469  1.00  0.00     0.161 A 
ATOM     15  C   UNL     1       4.195   0.232  -0.381  1.00  0.00     0.161 A 
ATOM     16  C   UNL     1       3.776  -1.026  -2.426  1.00  0.00     0.051 A 
ATOM     17  C   UNL     1       2.817   0.425  -0.242  1.00  0.00     0.058 A 
ATOM     18  C   UNL     1       2.405  -0.832  -2.274  1.00  0.00     0.012 A 
BRANCH  14  19
ATOM     19  O   UNL     1       5.992  -0.766  -1.691  1.00  0.00    -0.490 OA
BRANCH  19  20
ATOM     20  C   UNL     1       6.513  -1.693  -0.723  1.00  0.00     0.226 C 
ATOM     21  C   UNL     1       7.597  -2.503  -1.408  1.00  0.00     0.049 C 
ENDBRANCH  19  20
ENDBRANCH  14  19
BRANCH  15  22
ATOM     22  O   UNL     1       5.138   0.709   0.492  1.00  0.00    -0.490 OA
BRANCH  22  23
ATOM     23  C   UNL     1       4.732   1.767   1.359  1.00  0.00     0.226 C 
ATOM     24  C   UNL     1       5.965   2.281   2.072  1.00  0.00     0.049 C 
ENDBRANCH  22  23
ENDBRANCH  15  22
ENDBRANCH   1  13
BRANCH   9  25
ATOM     25  O   UNL     1      -4.543   0.889  -2.017  1.00  0.00    -0.490 OA
BRANCH  25  26
ATOM     26  C   UNL     1      -5.158   2.173  -1.895  1.00  0.00     0.226 C 
ATOM     27  C   UNL     1      -5.407   2.702  -3.298  1.00  0.00     0.049 C 
ENDBRANCH  25  26
ENDBRANCH   9  25
BRANCH   8  28
ATOM     28  O   UNL     1      -5.942   0.378   0.319  1.00  0.00    -0.490 OA
BRANCH  28  29
ATOM     29  C   UNL     1      -6.702   0.142   1.500  1.00  0.00     0.226 C 
ATOM     30  C   UNL     1      -7.101  -1.321   1.604  1.00  0.00     0.049 C 
ENDBRANCH  28  29
ENDBRANCH   8  28
TORSDOF 9
