REMARK SMILES CCC(=O)C1(c2ccccc2)CCN(CCOCCO)CC1
REMARK SMILES IDX 16 1 15 2 14 3 5 4 12 5 22 6 13 7 21 8 3 9 4 10 2 11 1 12
REMARK SMILES IDX 6 13 7 14 11 15 8 16 10 17 9 18 17 19 18 20 19 21 20 22
REMARK H PARENT 20 23
ROOT
ATOM      1  C   UNL     1       3.268  -1.643  -1.049  1.00  0.00     0.175 C 
ENDROOT
BRANCH   1   2
ATOM      2  C   UNL     1       2.366  -0.423  -1.342  1.00  0.00     0.113 C 
BRANCH   2   3
ATOM      3  N   UNL     1       1.575   0.079  -0.206  1.00  0.00    -0.301 NA
ATOM      4  C   UNL     1      -1.401   0.429   0.429  1.00  0.00     0.056 C 
ATOM      5  C   UNL     1      -0.657   0.995  -0.824  1.00  0.00     0.035 C 
ATOM      6  C   UNL     1      -0.356  -0.369   1.287  1.00  0.00     0.035 C 
ATOM      7  C   UNL     1       0.818   1.290  -0.540  1.00  0.00     0.086 C 
ATOM      8  C   UNL     1       0.758  -0.964   0.422  1.00  0.00     0.086 C 
BRANCH   4   9
ATOM      9  C   UNL     1      -1.884   1.670   1.248  1.00  0.00     0.143 C 
ATOM     10  O   UNL     1      -1.116   2.281   2.001  1.00  0.00    -0.299 OA
BRANCH   9  11
ATOM     11  C   UNL     1      -3.292   2.225   1.062  1.00  0.00     0.073 C 
ATOM     12  C   UNL     1      -3.437   3.056  -0.196  1.00  0.00     0.012 C 
ENDBRANCH   9  11
ENDBRANCH   4   9
BRANCH   4  13
ATOM     13  C   UNL     1      -2.601  -0.486   0.075  1.00  0.00    -0.034 A 
ATOM     14  C   UNL     1      -3.126  -0.589  -1.226  1.00  0.00     0.005 A 
ATOM     15  C   UNL     1      -3.258  -1.214   1.090  1.00  0.00     0.005 A 
ATOM     16  C   UNL     1      -4.225  -1.410  -1.504  1.00  0.00     0.000 A 
ATOM     17  C   UNL     1      -4.354  -2.034   0.811  1.00  0.00     0.000 A 
ATOM     18  C   UNL     1      -4.835  -2.137  -0.488  1.00  0.00     0.000 A 
ENDBRANCH   4  13
ENDBRANCH   2   3
ENDBRANCH   1   2
BRANCH   1  19
ATOM     19  O   UNL     1       4.094  -1.518   0.111  1.00  0.00    -0.378 OA
BRANCH  19  20
ATOM     20  C   UNL     1       5.079  -0.495   0.006  1.00  0.00     0.188 C 
BRANCH  20  21
ATOM     21  C   UNL     1       5.969  -0.528   1.245  1.00  0.00     0.184 C 
BRANCH  21  22
ATOM     22  O   UNL     1       7.049   0.391   1.124  1.00  0.00    -0.394 OA
ATOM     23  H   UNL     1       7.644   0.045   0.438  1.00  0.00     0.210 HD
ENDBRANCH  21  22
ENDBRANCH  20  21
ENDBRANCH  19  20
ENDBRANCH   1  19
TORSDOF 9
