REMARK SMILES N[C@H](C(=O)O)[C@H](O)c1ccc(O)c(O)c1
REMARK SMILES IDX 2 1 1 2 6 5 7 6 8 8 15 9 9 10 13 11 10 12 11 13 14 14 12 16
REMARK SMILES IDX 3 18 4 19 5 20
REMARK H PARENT 1 3 1 4 7 7 14 15 12 17 5 21
ROOT
ATOM      1  C   UNL     1      -2.140  -0.351   0.224  1.00  0.00     0.195 C 
ENDROOT
BRANCH   1   2
ATOM      2  N   UNL     1      -3.295  -1.220   0.614  1.00  0.00    -0.316 NA
ATOM      3  H   UNL     1      -3.579  -1.736  -0.222  1.00  0.00     0.119 HD
ATOM      4  H   UNL     1      -2.904  -1.934   1.239  1.00  0.00     0.119 HD
ENDBRANCH   1   2
BRANCH   1   5
ATOM      5  C   UNL     1      -0.849  -1.177  -0.004  1.00  0.00     0.173 C 
BRANCH   5   6
ATOM      6  O   UNL     1      -0.775  -2.233   0.974  1.00  0.00    -0.386 OA
ATOM      7  H   UNL     1       0.168  -2.437   1.111  1.00  0.00     0.211 HD
ENDBRANCH   5   6
BRANCH   5   8
ATOM      8  C   UNL     1       0.418  -0.347   0.053  1.00  0.00    -0.013 A 
ATOM      9  C   UNL     1       0.884   0.169   1.274  1.00  0.00     0.056 A 
ATOM     10  C   UNL     1       1.140  -0.070  -1.122  1.00  0.00     0.010 A 
ATOM     11  C   UNL     1       2.043   0.931   1.302  1.00  0.00     0.157 A 
ATOM     12  C   UNL     1       2.306   0.704  -1.083  1.00  0.00     0.050 A 
ATOM     13  C   UNL     1       2.750   1.200   0.135  1.00  0.00     0.157 A 
BRANCH  11  14
ATOM     14  O   UNL     1       2.487   1.420   2.497  1.00  0.00    -0.504 OA
ATOM     15  H   UNL     1       3.292   1.928   2.270  1.00  0.00     0.293 HD
ENDBRANCH  11  14
BRANCH  13  16
ATOM     16  O   UNL     1       3.881   1.962   0.237  1.00  0.00    -0.504 OA
ATOM     17  H   UNL     1       4.237   2.096  -0.658  1.00  0.00     0.293 HD
ENDBRANCH  13  16
ENDBRANCH   5   8
ENDBRANCH   1   5
BRANCH   1  18
ATOM     18  C   UNL     1      -2.465   0.412  -1.057  1.00  0.00     0.323 C 
ATOM     19  O   UNL     1      -2.084   1.532  -1.357  1.00  0.00    -0.250 OA
BRANCH  18  20
ATOM     20  O   UNL     1      -3.205  -0.304  -1.937  1.00  0.00    -0.480 OA
ATOM     21  H   UNL     1      -3.376   0.331  -2.665  1.00  0.00     0.296 HD
ENDBRANCH  18  20
ENDBRANCH   1  18
TORSDOF 8
