REMARK SMILES CN1c2c(oc(=O)n(-c3ccccn3)c2=O)-c2ccccc2S1(=O)=O
REMARK SMILES IDX 1 1 2 2 3 3 4 4 5 5 6 6 7 7 8 8 15 9 16 10 17 11 22 12 21 13
REMARK SMILES IDX 20 14 19 15 18 16 23 17 24 18 25 19 9 20 10 21 14 22 11 23
REMARK SMILES IDX 13 24 12 25
REMARK H PARENT
ROOT
ATOM      1  C   UNL     1      -1.071  -2.966   0.616  1.00  0.00     0.164 C 
ATOM      2  N   UNL     1      -1.493  -1.564   0.413  1.00  0.00    -0.260 N 
ATOM      3  C   UNL     1      -0.516  -0.531   0.138  1.00  0.00     0.161 C 
ATOM      4  C   UNL     1      -0.940   0.733   0.023  1.00  0.00     0.171 C 
ATOM      5  O   UNL     1      -0.050   1.796  -0.163  1.00  0.00    -0.406 OA
ATOM      6  C   UNL     1       1.312   1.629  -0.095  1.00  0.00     0.428 C 
ATOM      7  O   UNL     1       1.987   2.653  -0.020  1.00  0.00    -0.223 OA
ATOM      8  N   UNL     1       1.784   0.314  -0.047  1.00  0.00    -0.192 N 
ATOM      9  C   UNL     1       0.948  -0.797   0.006  1.00  0.00     0.290 C 
ATOM     10  O   UNL     1       1.333  -1.963  -0.094  1.00  0.00    -0.266 OA
ATOM     11  C   UNL     1      -2.354   1.153   0.086  1.00  0.00     0.040 A 
ATOM     12  C   UNL     1      -3.377   0.242  -0.178  1.00  0.00     0.099 A 
ATOM     13  C   UNL     1      -4.729   0.597  -0.129  1.00  0.00     0.023 A 
ATOM     14  C   UNL     1      -5.072   1.912   0.169  1.00  0.00     0.001 A 
ATOM     15  C   UNL     1      -4.071   2.850   0.419  1.00  0.00     0.001 A 
ATOM     16  C   UNL     1      -2.723   2.475   0.377  1.00  0.00     0.013 A 
ATOM     17  S   UNL     1      -2.915  -1.418  -0.521  1.00  0.00     0.265 S 
ATOM     18  O   UNL     1      -3.923  -2.279   0.060  1.00  0.00    -0.201 OA
ATOM     19  O   UNL     1      -2.558  -1.497  -1.920  1.00  0.00    -0.201 OA
ENDROOT
BRANCH   8  20
ATOM     20  C   UNL     1       3.205   0.124  -0.137  1.00  0.00     0.145 A 
ATOM     21  C   UNL     1       3.844  -0.960   0.473  1.00  0.00     0.048 A 
ATOM     22  N   UNL     1       3.929   1.028  -0.838  1.00  0.00    -0.238 NA
ATOM     23  C   UNL     1       5.227  -1.113   0.356  1.00  0.00     0.005 A 
ATOM     24  C   UNL     1       5.268   0.866  -0.938  1.00  0.00     0.113 A 
ATOM     25  C   UNL     1       5.957  -0.183  -0.366  1.00  0.00     0.020 A 
ENDBRANCH   8  20
TORSDOF 1
