REMARK SMILES CNCC[C@H](Oc1cccc2ccccc12)c1cccs1
REMARK SMILES IDX 4 1 3 2 2 3 1 4 5 6 6 7 7 8 8 9 16 10 9 11 11 12 15 13 10 14
REMARK SMILES IDX 12 15 14 16 13 17 17 18 18 19 21 20 19 21 20 22
REMARK H PARENT 2 5
ROOT
ATOM      1  C   UNL     1       2.002   0.427   1.132  1.00  0.00     0.066 C 
ENDROOT
BRANCH   1   2
ATOM      2  C   UNL     1       2.806  -0.673   0.434  1.00  0.00     0.085 C 
BRANCH   2   3
ATOM      3  N   UNL     1       3.881  -1.132   1.324  1.00  0.00    -0.320 NA
ATOM      4  C   UNL     1       4.698  -2.145   0.666  1.00  0.00     0.101 C 
ATOM      5  H   UNL     1       3.471  -1.537   2.165  1.00  0.00     0.122 HD
ENDBRANCH   2   3
ENDBRANCH   1   2
BRANCH   1   6
ATOM      6  C   UNL     1       0.771   0.914   0.348  1.00  0.00     0.215 C 
BRANCH   6   7
ATOM      7  O   UNL     1      -0.068  -0.196  -0.010  1.00  0.00    -0.484 OA
BRANCH   7   8
ATOM      8  C   UNL     1      -1.294  -0.253   0.611  1.00  0.00     0.128 A 
ATOM      9  C   UNL     1      -1.434  -0.064   1.990  1.00  0.00     0.047 A 
ATOM     10  C   UNL     1      -2.416  -0.591  -0.183  1.00  0.00     0.024 A 
ATOM     11  C   UNL     1      -2.689  -0.156   2.587  1.00  0.00     0.004 A 
ATOM     12  C   UNL     1      -3.688  -0.684   0.433  1.00  0.00    -0.015 A 
ATOM     13  C   UNL     1      -2.331  -0.837  -1.570  1.00  0.00     0.012 A 
ATOM     14  C   UNL     1      -3.808  -0.457   1.813  1.00  0.00     0.009 A 
ATOM     15  C   UNL     1      -4.817  -1.005  -0.340  1.00  0.00     0.009 A 
ATOM     16  C   UNL     1      -3.461  -1.158  -2.325  1.00  0.00     0.001 A 
ATOM     17  C   UNL     1      -4.704  -1.240  -1.710  1.00  0.00     0.001 A 
ENDBRANCH   7   8
ENDBRANCH   6   7
BRANCH   6  18
ATOM     18  C   UNL     1       1.149   1.672  -0.913  1.00  0.00     0.045 A 
ATOM     19  C   UNL     1       1.424   3.026  -1.010  1.00  0.00     0.019 A 
ATOM     20  S   UNL     1       1.289   0.913  -2.449  1.00  0.00    -0.145 S 
ATOM     21  C   UNL     1       1.749   3.431  -2.336  1.00  0.00     0.012 A 
ATOM     22  C   UNL     1       1.712   2.377  -3.218  1.00  0.00     0.065 A 
ENDBRANCH   6  18
ENDBRANCH   1   6
TORSDOF 6
