REMARK SMILES CC(=O)[C@H]1CC[C@H]2[C@@H]3C=CC4=CC(=O)CC[C@@]4(C)[C@@H]3CC[C@]12C
REMARK SMILES IDX 4 1 5 2 6 3 7 4 8 5 9 6 10 7 11 8 12 9 13 10 14 11 15 12
REMARK SMILES IDX 16 13 17 14 18 15 19 16 20 17 21 18 22 19 23 20 2 21 3 22
REMARK SMILES IDX 1 23
REMARK H PARENT
ROOT
ATOM      1  C   UNL     1      -3.066   0.492  -0.586  1.00  0.00     0.062 C 
ATOM      2  C   UNL     1      -3.285   1.812   0.195  1.00  0.00     0.012 C 
ATOM      3  C   UNL     1      -2.030   2.026   1.055  1.00  0.00     0.005 C 
ATOM      4  C   UNL     1      -1.034   1.005   0.510  1.00  0.00     0.003 C 
ATOM      5  C   UNL     1       0.192   0.658   1.362  1.00  0.00     0.019 C 
ATOM      6  C   UNL     1       0.992   1.884   1.705  1.00  0.00    -0.023 C 
ATOM      7  C   UNL     1       2.269   2.083   1.363  1.00  0.00     0.000 C 
ATOM      8  C   UNL     1       3.037   1.148   0.566  1.00  0.00    -0.039 C 
ATOM      9  C   UNL     1       4.371   1.301   0.504  1.00  0.00     0.051 C 
ATOM     10  C   UNL     1       5.229   0.394  -0.289  1.00  0.00     0.156 C 
ATOM     11  O   UNL     1       6.436   0.617  -0.359  1.00  0.00    -0.295 OA
ATOM     12  C   UNL     1       4.586  -0.747  -1.030  1.00  0.00     0.081 C 
ATOM     13  C   UNL     1       3.261  -1.156  -0.396  1.00  0.00     0.020 C 
ATOM     14  C   UNL     1       2.275   0.031  -0.162  1.00  0.00    -0.004 C 
ATOM     15  C   UNL     1       1.823   0.576  -1.533  1.00  0.00     0.017 C 
ATOM     16  C   UNL     1       1.064  -0.477   0.726  1.00  0.00     0.006 C 
ATOM     17  C   UNL     1       0.207  -1.607   0.086  1.00  0.00     0.006 C 
ATOM     18  C   UNL     1      -1.068  -1.174  -0.653  1.00  0.00     0.008 C 
ATOM     19  C   UNL     1      -1.922  -0.215   0.183  1.00  0.00    -0.019 C 
ATOM     20  C   UNL     1      -2.476  -0.946   1.432  1.00  0.00     0.012 C 
ENDROOT
BRANCH   1  21
ATOM     21  C   UNL     1      -4.347  -0.323  -0.759  1.00  0.00     0.133 C 
ATOM     22  O   UNL     1      -5.344  -0.144  -0.060  1.00  0.00    -0.300 OA
ATOM     23  C   UNL     1      -4.337  -1.406  -1.806  1.00  0.00     0.088 C 
ENDBRANCH   1  21
TORSDOF 1
