REMARK SMILES N=C(N)Nc1nc(CSCCN/C=N/S(=O)(=O)c2ccc(Br)cc2)cs1
REMARK SMILES IDX 10 1 9 2 8 3 7 4 5 5 6 6 26 7 25 8 4 9 3 10 2 11 1 12 11 17
REMARK SMILES IDX 12 18 13 19 14 20 15 22 16 23 17 24 18 25 19 26 24 27 20 28
REMARK SMILES IDX 23 29 21 30 22 31
REMARK H PARENT 3 13 3 14 1 15 4 16 12 21
ROOT
ATOM      1  C   UNL     1      -0.314   0.148  -0.941  1.00  0.00     0.091 C 
ENDROOT
BRANCH   1   2
ATOM      2  S   UNL     1      -1.597   1.173  -0.142  1.00  0.00    -0.154 SA
BRANCH   2   3
ATOM      3  C   UNL     1      -2.411  -0.095   0.884  1.00  0.00     0.126 C 
BRANCH   3   4
ATOM      4  C   UNL     1      -3.740   0.375   1.381  1.00  0.00     0.064 A 
ATOM      5  C   UNL     1      -5.970   0.246   1.484  1.00  0.00     0.189 A 
ATOM      6  N   UNL     1      -4.886  -0.292   0.964  1.00  0.00    -0.224 NA
ATOM      7  S   UNL     1      -5.655   1.568   2.546  1.00  0.00    -0.105 S 
ATOM      8  C   UNL     1      -3.978   1.412   2.263  1.00  0.00     0.093 A 
BRANCH   5   9
ATOM      9  N   UNL     1      -7.197  -0.244   1.202  1.00  0.00    -0.303 N 
ATOM     10  N   UNL     1      -9.410  -0.660   1.076  1.00  0.00    -0.370 N 
ATOM     11  C   UNL     1      -8.445   0.188   1.502  1.00  0.00     0.192 C 
ATOM     12  N   UNL     1      -8.824   1.254   2.110  1.00  0.00    -0.269 NA
ATOM     13  H   UNL     1     -10.310  -0.307   1.397  1.00  0.00     0.159 HD
ATOM     14  H   UNL     1      -9.287  -1.609   1.409  1.00  0.00     0.159 HD
ATOM     15  H   UNL     1      -7.997   1.806   2.360  1.00  0.00     0.191 HD
ATOM     16  H   UNL     1      -7.181  -0.988   0.517  1.00  0.00     0.172 HD
ENDBRANCH   5   9
ENDBRANCH   3   4
ENDBRANCH   2   3
ENDBRANCH   1   2
BRANCH   1  17
ATOM     17  C   UNL     1       0.776  -0.315   0.029  1.00  0.00     0.124 C 
BRANCH  17  18
ATOM     18  N   UNL     1       1.743  -1.177  -0.639  1.00  0.00    -0.375 N 
ATOM     19  C   UNL     1       2.727  -0.692  -1.460  1.00  0.00     0.206 C 
ATOM     20  N   UNL     1       3.050   0.544  -1.592  1.00  0.00    -0.150 NA
ATOM     21  H   UNL     1       1.439  -2.133  -0.800  1.00  0.00     0.161 HD
BRANCH  20  22
ATOM     22  S   UNL     1       4.262   0.911  -2.614  1.00  0.00     0.283 S 
ATOM     23  O   UNL     1       4.213   2.326  -2.921  1.00  0.00    -0.199 OA
ATOM     24  O   UNL     1       4.314  -0.070  -3.683  1.00  0.00    -0.199 OA
BRANCH  22  25
ATOM     25  C   UNL     1       5.728   0.682  -1.620  1.00  0.00     0.089 A 
ATOM     26  C   UNL     1       6.755  -0.158  -2.062  1.00  0.00     0.023 A 
ATOM     27  C   UNL     1       5.820   1.347  -0.393  1.00  0.00     0.023 A 
ATOM     28  C   UNL     1       7.886  -0.333  -1.262  1.00  0.00     0.017 A 
ATOM     29  C   UNL     1       6.953   1.167   0.402  1.00  0.00     0.017 A 
ATOM     30  C   UNL     1       7.979   0.328  -0.036  1.00  0.00     0.018 A 
ATOM     31  Br  UNL     1       9.513   0.085   1.043  1.00  0.00    -0.051 Br
ENDBRANCH  22  25
ENDBRANCH  20  22
ENDBRANCH  17  18
ENDBRANCH   1  17
TORSDOF 8
