REMARK SMILES CN1CCc2nc(C(=O)N[C@@H]3C[C@@H](C(=O)N(C)C)CC[C@@H]3NC(=O)C(=O)Nc3ccc(Cl)cn3)sc2C1
REMARK SMILES IDX 13 1 19 2 20 3 21 4 11 5 12 6 14 7 16 8 15 9 17 10 18 11
REMARK SMILES IDX 10 12 8 13 9 14 7 16 6 17 35 18 5 19 36 20 4 21 37 22 3 23
REMARK SMILES IDX 2 24 1 25 22 26 23 27 24 28 25 30 26 31 27 32 28 34 29 35
REMARK SMILES IDX 34 36 30 37 33 38 31 39 32 40
REMARK H PARENT 10 15 22 29 27 33
ROOT
ATOM      1  C   UNL     1       1.044   3.823   1.104  1.00  0.00     0.081 C 
ATOM      2  C   UNL     1       0.821   3.839   2.622  1.00  0.00     0.016 C 
ATOM      3  C   UNL     1       0.819   2.434   3.236  1.00  0.00     0.028 C 
ATOM      4  C   UNL     1       0.259   1.346   2.304  1.00  0.00     0.105 C 
ATOM      5  C   UNL     1      -0.747   1.973   1.303  1.00  0.00     0.105 C 
ATOM      6  C   UNL     1      -0.069   3.015   0.397  1.00  0.00     0.040 C 
ENDROOT
BRANCH   1   7
ATOM      7  C   UNL     1       1.143   5.259   0.571  1.00  0.00     0.225 C 
ATOM      8  N   UNL     1       2.284   5.997   0.884  1.00  0.00    -0.349 N 
ATOM      9  O   UNL     1       0.220   5.750  -0.080  1.00  0.00    -0.275 OA
ATOM     10  C   UNL     1       2.359   7.358   0.374  1.00  0.00     0.146 C 
ATOM     11  C   UNL     1       3.555   5.422   1.304  1.00  0.00     0.146 C 
ENDBRANCH   1   7
BRANCH   5  12
ATOM     12  N   UNL     1      -1.444   0.976   0.501  1.00  0.00    -0.345 N 
ATOM     13  C   UNL     1      -2.470   0.204   1.044  1.00  0.00     0.280 C 
ATOM     14  O   UNL     1      -2.925   0.479   2.156  1.00  0.00    -0.267 OA
ATOM     15  H   UNL     1      -0.970   0.583  -0.301  1.00  0.00     0.164 HD
BRANCH  13  16
ATOM     16  C   UNL     1      -2.943  -0.915   0.218  1.00  0.00     0.181 A 
ATOM     17  N   UNL     1      -3.926  -1.720   0.590  1.00  0.00    -0.236 NA
ATOM     18  S   UNL     1      -2.253  -1.267  -1.330  1.00  0.00    -0.112 S 
ATOM     19  C   UNL     1      -4.143  -2.662  -0.390  1.00  0.00     0.058 A 
ATOM     20  C   UNL     1      -3.337  -2.563  -1.502  1.00  0.00     0.042 A 
ATOM     21  C   UNL     1      -5.205  -3.700  -0.276  1.00  0.00     0.073 C 
ATOM     22  C   UNL     1      -3.390  -3.485  -2.676  1.00  0.00     0.132 C 
ATOM     23  C   UNL     1      -5.021  -4.773  -1.377  1.00  0.00     0.091 C 
ATOM     24  N   UNL     1      -4.654  -4.262  -2.722  1.00  0.00    -0.301 NA
ATOM     25  C   UNL     1      -5.740  -3.483  -3.320  1.00  0.00     0.105 C 
ENDBRANCH  13  16
ENDBRANCH   5  12
BRANCH   4  26
ATOM     26  N   UNL     1       1.357   0.653   1.626  1.00  0.00    -0.343 N 
ATOM     27  C   UNL     1       1.278  -0.632   1.145  1.00  0.00     0.310 C 
ATOM     28  O   UNL     1       0.330  -1.398   1.245  1.00  0.00    -0.264 OA
ATOM     29  H   UNL     1       2.213   1.148   1.385  1.00  0.00     0.164 HD
BRANCH  27  30
ATOM     30  C   UNL     1       2.544  -1.085   0.390  1.00  0.00     0.314 C 
ATOM     31  O   UNL     1       3.425  -0.258   0.205  1.00  0.00    -0.263 OA
ATOM     32  N   UNL     1       2.459  -2.407   0.026  1.00  0.00    -0.302 N 
ATOM     33  H   UNL     1       1.609  -2.884   0.310  1.00  0.00     0.172 HD
BRANCH  32  34
ATOM     34  C   UNL     1       3.421  -3.117  -0.688  1.00  0.00     0.132 A 
ATOM     35  C   UNL     1       3.160  -4.459  -0.960  1.00  0.00     0.049 A 
ATOM     36  N   UNL     1       4.551  -2.512  -1.096  1.00  0.00    -0.238 NA
ATOM     37  C   UNL     1       4.099  -5.205  -1.675  1.00  0.00     0.026 A 
ATOM     38  C   UNL     1       5.449  -3.254  -1.789  1.00  0.00     0.134 A 
ATOM     39  C   UNL     1       5.268  -4.590  -2.099  1.00  0.00     0.059 A 
ATOM     40  Cl  UNL     1       6.451  -5.466  -2.979  1.00  0.00    -0.083 Cl
ENDBRANCH  32  34
ENDBRANCH  27  30
ENDBRANCH   4  26
TORSDOF 6
