REMARK SMILES CCOC(=O)COc1ccc2c(=O)cc(-c3ccccc3)oc2c1
REMARK SMILES IDX 4 1 5 2 3 3 2 4 1 5 6 6 7 7 8 8 9 9 24 10 10 11 23 12 11 13
REMARK SMILES IDX 22 14 12 15 15 16 13 17 14 18 16 19 17 20 21 21 18 22 20 23
REMARK SMILES IDX 19 24
REMARK H PARENT
ROOT
ATOM      1  C   UNL     1      -4.419   1.282  -0.422  1.00  0.00     0.344 C 
ATOM      2  O   UNL     1      -4.813   2.196  -1.138  1.00  0.00    -0.248 OA
ENDROOT
BRANCH   1   3
ATOM      3  O   UNL     1      -5.224   0.422   0.260  1.00  0.00    -0.463 OA
BRANCH   3   4
ATOM      4  C   UNL     1      -6.635   0.661   0.155  1.00  0.00     0.229 C 
ATOM      5  C   UNL     1      -7.196  -0.051  -1.061  1.00  0.00     0.049 C 
ENDBRANCH   3   4
ENDBRANCH   1   3
BRANCH   1   6
ATOM      6  C   UNL     1      -2.950   0.927  -0.250  1.00  0.00     0.351 C 
BRANCH   6   7
ATOM      7  O   UNL     1      -2.674   0.430   1.054  1.00  0.00    -0.482 OA
BRANCH   7   8
ATOM      8  C   UNL     1      -1.389   0.049   1.320  1.00  0.00     0.123 A 
ATOM      9  C   UNL     1      -1.192  -0.469   2.605  1.00  0.00     0.047 A 
ATOM     10  C   UNL     1      -0.306   0.139   0.442  1.00  0.00     0.094 A 
ATOM     11  C   UNL     1       0.072  -0.897   3.016  1.00  0.00     0.020 A 
ATOM     12  C   UNL     1       0.960  -0.289   0.853  1.00  0.00     0.142 A 
ATOM     13  C   UNL     1       1.146  -0.804   2.132  1.00  0.00     0.065 A 
ATOM     14  O   UNL     1       1.981  -0.175  -0.059  1.00  0.00    -0.456 OA
ATOM     15  C   UNL     1       2.492  -1.243   2.528  1.00  0.00     0.193 C 
ATOM     16  C   UNL     1       3.252  -0.577   0.321  1.00  0.00     0.138 C 
ATOM     17  O   UNL     1       2.731  -1.708   3.634  1.00  0.00    -0.289 OA
ATOM     18  C   UNL     1       3.554  -1.096   1.520  1.00  0.00     0.100 C 
BRANCH  16  19
ATOM     19  C   UNL     1       4.276  -0.414  -0.730  1.00  0.00     0.017 A 
ATOM     20  C   UNL     1       5.545   0.112  -0.443  1.00  0.00     0.012 A 
ATOM     21  C   UNL     1       3.981  -0.765  -2.056  1.00  0.00     0.012 A 
ATOM     22  C   UNL     1       6.497   0.269  -1.453  1.00  0.00     0.001 A 
ATOM     23  C   UNL     1       4.934  -0.609  -3.065  1.00  0.00     0.001 A 
ATOM     24  C   UNL     1       6.192  -0.094  -2.763  1.00  0.00     0.000 A 
ENDBRANCH  16  19
ENDBRANCH   7   8
ENDBRANCH   6   7
ENDBRANCH   1   6
TORSDOF 6
