REMARK SMILES CC/C=C\C/C=C\C/C=C\C/C=C\C/C=C\CCCC(=O)O
REMARK SMILES IDX 12 1 13 2 11 3 10 4 9 5 8 6 7 7 6 8 5 9 4 10 3 11 2 12 1 13
REMARK SMILES IDX 14 14 15 15 16 16 17 17 18 18 19 19 20 20 21 21 22 22
REMARK H PARENT 22 23
ROOT
ATOM      1  C   UNL     1       2.073  -2.599  -1.203  1.00  0.00    -0.027 C 
ATOM      2  C   UNL     1       2.469  -3.171  -0.051  1.00  0.00    -0.027 C 
ENDROOT
BRANCH   1   3
ATOM      3  C   UNL     1       1.694  -1.181  -1.511  1.00  0.00     0.054 C 
BRANCH   3   4
ATOM      4  C   UNL     1       0.460  -1.119  -2.370  1.00  0.00    -0.027 C 
ATOM      5  C   UNL     1      -0.802  -0.897  -1.962  1.00  0.00    -0.027 C 
BRANCH   5   6
ATOM      6  C   UNL     1      -1.280  -0.725  -0.550  1.00  0.00     0.054 C 
BRANCH   6   7
ATOM      7  C   UNL     1      -1.692   0.695  -0.291  1.00  0.00    -0.027 C 
ATOM      8  C   UNL     1      -2.921   1.165  -0.018  1.00  0.00    -0.027 C 
BRANCH   8   9
ATOM      9  C   UNL     1      -4.205   0.392   0.086  1.00  0.00     0.054 C 
BRANCH   9  10
ATOM     10  C   UNL     1      -5.192   0.855  -0.947  1.00  0.00    -0.027 C 
ATOM     11  C   UNL     1      -6.381   1.446  -0.747  1.00  0.00    -0.031 C 
BRANCH  11  12
ATOM     12  C   UNL     1      -7.007   1.823   0.564  1.00  0.00     0.023 C 
ATOM     13  C   UNL     1      -8.192   0.926   0.888  1.00  0.00     0.008 C 
ENDBRANCH  11  12
ENDBRANCH   9  10
ENDBRANCH   8   9
ENDBRANCH   6   7
ENDBRANCH   5   6
ENDBRANCH   3   4
ENDBRANCH   1   3
BRANCH   2  14
ATOM     14  C   UNL     1       2.723  -2.661   1.343  1.00  0.00     0.054 C 
BRANCH  14  15
ATOM     15  C   UNL     1       2.522  -1.198   1.586  1.00  0.00    -0.027 C 
ATOM     16  C   UNL     1       3.461  -0.236   1.622  1.00  0.00    -0.031 C 
BRANCH  16  17
ATOM     17  C   UNL     1       4.939  -0.401   1.408  1.00  0.00     0.027 C 
BRANCH  17  18
ATOM     18  C   UNL     1       5.380  -0.133  -0.035  1.00  0.00     0.016 C 
BRANCH  18  19
ATOM     19  C   UNL     1       5.029   1.256  -0.569  1.00  0.00     0.123 C 
BRANCH  19  20
ATOM     20  C   UNL     1       5.758   2.354   0.153  1.00  0.00     0.303 C 
ATOM     21  O   UNL     1       6.782   2.257   0.808  1.00  0.00    -0.252 OA
BRANCH  20  22
ATOM     22  O   UNL     1       5.167   3.553  -0.019  1.00  0.00    -0.481 OA
ATOM     23  H   UNL     1       5.743   4.175   0.474  1.00  0.00     0.296 HD
ENDBRANCH  20  22
ENDBRANCH  19  20
ENDBRANCH  18  19
ENDBRANCH  17  18
ENDBRANCH  16  17
ENDBRANCH  14  15
ENDBRANCH   2  14
TORSDOF 14
