REMARK SMILES CC[C@H](C)[C@H](NC(=O)[C@H](Cc1ccccc1)NC(=O)[C@H](C)NC(=O)[C@H](CC(=O)O)NC(=O)[C@H](CCCCN)NC(=O)[C@H](CO)NC(=O)[C@@H]1CCCN1C(=O)[C@@H]1CCC(=O)N1)C(=O)NCC(=O)N[C@@H](CC(C)C)C(=O)N[C@@H](CCSC)C(N)=O
REMARK SMILES IDX 17 1 18 2 19 3 9 5 7 6 6 7 8 8 5 10 3 11 4 12 2 13 1 14
REMARK SMILES IDX 61 15 62 16 63 17 64 19 65 20 66 21 67 22 68 24 69 25 70 26
REMARK SMILES IDX 71 27 72 28 73 29 74 30 75 31 76 33 77 34 78 35 79 36 80 37
REMARK SMILES IDX 81 38 82 39 83 40 10 43 11 44 12 45 16 46 13 47 15 48 14 49
REMARK SMILES IDX 20 50 21 51 22 52 23 53 24 54 25 56 26 57 27 58 28 59 29 60
REMARK SMILES IDX 30 62 31 63 32 64 33 66 34 67 35 68 36 69 37 70 38 71 39 74
REMARK SMILES IDX 40 75 41 76 42 78 43 79 44 80 45 82 46 83 47 84 48 86 49 87
REMARK SMILES IDX 52 88 50 89 51 90 53 91 54 92 55 93 56 94 60 95 57 96 58 97
REMARK SMILES IDX 59 98
REMARK H PARENT 17 4 6 9 63 18 67 23 75 32 82 41 82 42 22 55 29 61 30 65 38 72
REMARK H PARENT 38 73 39 77 44 81 45 85 60 99
ROOT
ATOM      1  N   UNL     1      -0.145  -1.437   0.059  1.00  0.00    -0.342 N 
ATOM      2  C   UNL     1       0.309  -2.033   1.216  1.00  0.00     0.242 C 
ATOM      3  O   UNL     1      -0.362  -2.822   1.880  1.00  0.00    -0.273 OA
ATOM      4  H   UNL     1       0.405  -0.644  -0.245  1.00  0.00     0.164 HD
ENDROOT
BRANCH   1   5
ATOM      5  C   UNL     1      -1.543  -1.501  -0.384  1.00  0.00     0.175 C 
BRANCH   5   6
ATOM      6  C   UNL     1      -2.358  -0.419   0.381  1.00  0.00     0.243 C 
ATOM      7  N   UNL     1      -3.630  -0.181  -0.102  1.00  0.00    -0.342 N 
ATOM      8  O   UNL     1      -1.876   0.245   1.297  1.00  0.00    -0.273 OA
ATOM      9  H   UNL     1      -3.982  -0.742  -0.867  1.00  0.00     0.164 HD
BRANCH   7  10
ATOM     10  C   UNL     1      -4.466   0.906   0.416  1.00  0.00     0.174 C 
BRANCH  10  11
ATOM     11  C   UNL     1      -5.074   1.771  -0.727  1.00  0.00     0.018 C 
ATOM     12  C   UNL     1      -3.990   2.694  -1.301  1.00  0.00     0.010 C 
BRANCH  11  13
ATOM     13  C   UNL     1      -5.741   0.939  -1.846  1.00  0.00     0.002 C 
ATOM     14  C   UNL     1      -6.602   1.773  -2.788  1.00  0.00     0.004 C 
ENDBRANCH  11  13
ENDBRANCH  10  11
BRANCH  10  15
ATOM     15  C   UNL     1      -5.586   0.412   1.362  1.00  0.00     0.243 C 
ATOM     16  O   UNL     1      -6.058   1.133   2.238  1.00  0.00    -0.273 OA
ATOM     17  N   UNL     1      -6.168  -0.793   1.020  1.00  0.00    -0.345 N 
ATOM     18  H   UNL     1      -5.588  -1.423   0.482  1.00  0.00     0.164 HD
BRANCH  17  19
ATOM     19  C   UNL     1      -7.190  -1.396   1.871  1.00  0.00     0.216 C 
BRANCH  19  20
ATOM     20  C   UNL     1      -8.620  -0.848   1.706  1.00  0.00     0.240 C 
ATOM     21  O   UNL     1      -9.591  -1.404   2.218  1.00  0.00    -0.273 OA
ATOM     22  N   UNL     1      -8.724   0.329   1.010  1.00  0.00    -0.343 N 
ATOM     23  H   UNL     1      -7.926   0.605   0.453  1.00  0.00     0.164 HD
BRANCH  22  24
ATOM     24  C   UNL     1      -9.985   1.025   0.774  1.00  0.00     0.171 C 
BRANCH  24  25
ATOM     25  C   UNL     1      -9.726   2.545   0.787  1.00  0.00     0.038 C 
BRANCH  25  26
ATOM     26  C   UNL     1     -10.853   3.433   1.354  1.00  0.00    -0.015 C 
ATOM     27  C   UNL     1     -12.157   3.315   0.572  1.00  0.00     0.007 C 
ATOM     28  C   UNL     1     -11.093   3.187   2.844  1.00  0.00     0.007 C 
ENDBRANCH  25  26
ENDBRANCH  24  25
BRANCH  24  29
ATOM     29  C   UNL     1     -10.466   0.549  -0.616  1.00  0.00     0.243 C 
ATOM     30  O   UNL     1      -9.766   0.640  -1.623  1.00  0.00    -0.273 OA
ATOM     31  N   UNL     1     -11.719  -0.034  -0.625  1.00  0.00    -0.342 N 
ATOM     32  H   UNL     1     -12.339   0.231   0.133  1.00  0.00     0.164 HD
BRANCH  31  33
ATOM     33  C   UNL     1     -12.347  -0.429  -1.881  1.00  0.00     0.172 C 
BRANCH  33  34
ATOM     34  C   UNL     1     -13.222  -1.677  -1.711  1.00  0.00     0.046 C 
BRANCH  34  35
ATOM     35  C   UNL     1     -14.473  -1.445  -0.860  1.00  0.00     0.072 C 
BRANCH  35  36
ATOM     36  S   UNL     1     -15.396  -3.001  -0.617  1.00  0.00    -0.165 SA
ATOM     37  C   UNL     1     -14.438  -3.705   0.752  1.00  0.00     0.085 C 
ENDBRANCH  35  36
ENDBRANCH  34  35
ENDBRANCH  33  34
BRANCH  33  38
ATOM     38  C   UNL     1     -13.153   0.751  -2.451  1.00  0.00     0.240 C 
ATOM     39  N   UNL     1     -13.384   0.724  -3.795  1.00  0.00    -0.368 N 
ATOM     40  O   UNL     1     -13.639   1.638  -1.754  1.00  0.00    -0.273 OA
ATOM     41  H   UNL     1     -13.822   1.548  -4.187  1.00  0.00     0.159 HD
ATOM     42  H   UNL     1     -12.791   0.184  -4.415  1.00  0.00     0.159 HD
ENDBRANCH  33  38
ENDBRANCH  31  33
ENDBRANCH  24  29
ENDBRANCH  22  24
ENDBRANCH  19  20
ENDBRANCH  17  19
ENDBRANCH  10  15
ENDBRANCH   7  10
ENDBRANCH   5   6
BRANCH   5  43
ATOM     43  C   UNL     1      -2.161  -2.913  -0.307  1.00  0.00     0.070 C 
BRANCH  43  44
ATOM     44  C   UNL     1      -3.399  -3.135  -1.151  1.00  0.00    -0.045 A 
ATOM     45  C   UNL     1      -4.556  -3.669  -0.562  1.00  0.00     0.004 A 
ATOM     46  C   UNL     1      -3.413  -2.845  -2.522  1.00  0.00     0.004 A 
ATOM     47  C   UNL     1      -5.716  -3.851  -1.314  1.00  0.00     0.000 A 
ATOM     48  C   UNL     1      -4.577  -3.022  -3.271  1.00  0.00     0.000 A 
ATOM     49  C   UNL     1      -5.731  -3.512  -2.664  1.00  0.00     0.000 A 
ENDBRANCH  43  44
ENDBRANCH   5  43
ENDBRANCH   1   5
BRANCH   2  50
ATOM     50  C   UNL     1       1.666  -1.504   1.731  1.00  0.00     0.168 C 
ATOM     51  C   UNL     1       1.369  -0.486   2.829  1.00  0.00     0.041 C 
BRANCH  50  52
ATOM     52  N   UNL     1       2.525  -0.881   0.716  1.00  0.00    -0.343 N 
ATOM     53  C   UNL     1       3.174  -1.710  -0.190  1.00  0.00     0.243 C 
ATOM     54  O   UNL     1       2.691  -2.767  -0.576  1.00  0.00    -0.273 OA
ATOM     55  H   UNL     1       3.152  -0.171   1.077  1.00  0.00     0.164 HD
BRANCH  53  56
ATOM     56  C   UNL     1       4.455  -1.090  -0.807  1.00  0.00     0.182 C 
BRANCH  56  57
ATOM     57  C   UNL     1       5.383  -2.160  -1.395  1.00  0.00     0.157 C 
BRANCH  57  58
ATOM     58  C   UNL     1       5.945  -1.710  -2.713  1.00  0.00     0.305 C 
ATOM     59  O   UNL     1       5.986  -0.567  -3.141  1.00  0.00    -0.252 OA
BRANCH  58  60
ATOM     60  O   UNL     1       6.474  -2.728  -3.417  1.00  0.00    -0.481 OA
ATOM     61  H   UNL     1       6.793  -2.352  -4.264  1.00  0.00     0.296 HD
ENDBRANCH  58  60
ENDBRANCH  57  58
ENDBRANCH  56  57
BRANCH  56  62
ATOM     62  N   UNL     1       5.154  -0.155   0.097  1.00  0.00    -0.342 N 
ATOM     63  C   UNL     1       5.701  -0.592   1.297  1.00  0.00     0.243 C 
ATOM     64  O   UNL     1       5.377  -1.667   1.794  1.00  0.00    -0.273 OA
ATOM     65  H   UNL     1       5.657   0.601  -0.359  1.00  0.00     0.164 HD
BRANCH  63  66
ATOM     66  C   UNL     1       6.552   0.452   2.057  1.00  0.00     0.171 C 
BRANCH  66  67
ATOM     67  C   UNL     1       5.640   1.365   2.892  1.00  0.00     0.035 C 
BRANCH  67  68
ATOM     68  C   UNL     1       5.747   1.120   4.404  1.00  0.00     0.004 C 
BRANCH  68  69
ATOM     69  C   UNL     1       5.272  -0.271   4.837  1.00  0.00     0.015 C 
BRANCH  69  70
ATOM     70  C   UNL     1       5.176  -0.429   6.355  1.00  0.00     0.077 C 
BRANCH  70  71
ATOM     71  N   UNL     1       6.476  -0.380   7.012  1.00  0.00    -0.330 NA
ATOM     72  H   UNL     1       6.938   0.509   6.829  1.00  0.00     0.118 HD
ATOM     73  H   UNL     1       7.084  -1.103   6.626  1.00  0.00     0.118 HD
ENDBRANCH  70  71
ENDBRANCH  69  70
ENDBRANCH  68  69
ENDBRANCH  67  68
ENDBRANCH  66  67
BRANCH  66  74
ATOM     74  N   UNL     1       7.321   1.241   1.100  1.00  0.00    -0.342 N 
ATOM     75  C   UNL     1       8.523   0.785   0.607  1.00  0.00     0.245 C 
ATOM     76  O   UNL     1       9.073  -0.246   0.996  1.00  0.00    -0.273 OA
ATOM     77  H   UNL     1       6.874   2.013   0.610  1.00  0.00     0.164 HD
BRANCH  75  78
ATOM     78  C   UNL     1       9.096   1.618  -0.551  1.00  0.00     0.197 C 
BRANCH  78  79
ATOM     79  C   UNL     1       8.351   1.214  -1.828  1.00  0.00     0.191 C 
BRANCH  79  80
ATOM     80  O   UNL     1       6.954   1.524  -1.746  1.00  0.00    -0.394 OA
ATOM     81  H   UNL     1       6.546   1.055  -2.507  1.00  0.00     0.210 HD
ENDBRANCH  79  80
ENDBRANCH  78  79
BRANCH  78  82
ATOM     82  N   UNL     1      10.523   1.300  -0.640  1.00  0.00    -0.340 N 
ATOM     83  C   UNL     1      11.423   2.041   0.105  1.00  0.00     0.243 C 
ATOM     84  O   UNL     1      11.089   3.064   0.698  1.00  0.00    -0.273 OA
ATOM     85  H   UNL     1      10.703   0.301  -0.634  1.00  0.00     0.164 HD
BRANCH  83  86
ATOM     86  C   UNL     1      12.878   1.494   0.094  1.00  0.00     0.174 C 
ATOM     87  C   UNL     1      13.744   2.203   1.136  1.00  0.00     0.037 C 
ATOM     88  N   UNL     1      13.552   1.840  -1.163  1.00  0.00    -0.329 N 
ATOM     89  C   UNL     1      14.159   3.494   0.433  1.00  0.00     0.024 C 
ATOM     90  C   UNL     1      14.289   3.088  -1.029  1.00  0.00     0.120 C 
BRANCH  88  91
ATOM     91  C   UNL     1      13.608   1.148  -2.353  1.00  0.00     0.245 C 
ATOM     92  O   UNL     1      14.096   1.660  -3.363  1.00  0.00    -0.272 OA
BRANCH  91  93
ATOM     93  C   UNL     1      13.111  -0.312  -2.378  1.00  0.00     0.172 C 
ATOM     94  C   UNL     1      14.089  -1.262  -1.700  1.00  0.00     0.045 C 
ATOM     95  N   UNL     1      13.032  -0.839  -3.717  1.00  0.00    -0.344 N 
ATOM     96  C   UNL     1      15.029  -1.687  -2.826  1.00  0.00     0.102 C 
ATOM     97  C   UNL     1      14.191  -1.505  -4.064  1.00  0.00     0.220 C 
ATOM     98  O   UNL     1      14.487  -1.846  -5.195  1.00  0.00    -0.275 OA
ATOM     99  H   UNL     1      12.564  -0.353  -4.477  1.00  0.00     0.164 HD
ENDBRANCH  91  93
ENDBRANCH  88  91
ENDBRANCH  83  86
ENDBRANCH  78  82
ENDBRANCH  75  78
ENDBRANCH  66  74
ENDBRANCH  63  66
ENDBRANCH  56  62
ENDBRANCH  53  56
ENDBRANCH  50  52
ENDBRANCH   2  50
TORSDOF 40
