REMARK SMILES OC[C@H]1O[C@@H](c2ccc(Cl)c(Cc3ccc(O[C@H]4CCOC4)cc3)c2)[C@H](O)[C@@H](O)[C@@H]1O
REMARK SMILES IDX 6 1 25 2 11 3 9 4 10 5 8 6 7 7 5 8 3 9 4 10 30 11 28 12
REMARK SMILES IDX 26 13 2 14 1 15 31 17 29 19 27 21 12 23 13 24 14 25 24 26
REMARK SMILES IDX 15 27 23 28 16 29 17 30 18 31 19 32 22 33 20 34 21 35
REMARK H PARENT 1 16 31 18 29 20 27 22
ROOT
ATOM      1  C   UNL     1      -2.305   1.191   0.652  1.00  0.00    -0.016 A 
ATOM      2  C   UNL     1      -1.324   1.247  -0.359  1.00  0.00     0.012 A 
ATOM      3  C   UNL     1      -0.496   2.373  -0.549  1.00  0.00    -0.025 A 
ATOM      4  C   UNL     1      -0.661   3.465   0.313  1.00  0.00     0.044 A 
ATOM      5  Cl  UNL     1       0.278   4.907   0.169  1.00  0.00    -0.084 Cl
ATOM      6  C   UNL     1      -1.620   3.424   1.327  1.00  0.00     0.021 A 
ATOM      7  C   UNL     1      -2.432   2.298   1.497  1.00  0.00     0.008 A 
ENDROOT
BRANCH   1   8
ATOM      8  C   UNL     1      -3.146  -0.075   0.787  1.00  0.00     0.180 C 
ATOM      9  C   UNL     1      -4.377  -1.580  -0.628  1.00  0.00     0.176 C 
ATOM     10  O   UNL     1      -3.682  -0.328  -0.530  1.00  0.00    -0.362 OA
ATOM     11  C   UNL     1      -5.609  -1.553   0.285  1.00  0.00     0.177 C 
ATOM     12  C   UNL     1      -5.137  -1.320   1.720  1.00  0.00     0.177 C 
ATOM     13  C   UNL     1      -4.290  -0.047   1.829  1.00  0.00     0.179 C 
BRANCH   9  14
ATOM     14  C   UNL     1      -4.749  -1.782  -2.100  1.00  0.00     0.191 C 
BRANCH  14  15
ATOM     15  O   UNL     1      -5.645  -0.760  -2.534  1.00  0.00    -0.394 OA
ATOM     16  H   UNL     1      -5.175   0.084  -2.384  1.00  0.00     0.210 HD
ENDBRANCH  14  15
ENDBRANCH   9  14
BRANCH  11  17
ATOM     17  O   UNL     1      -6.340  -2.782   0.249  1.00  0.00    -0.388 OA
ATOM     18  H   UNL     1      -6.871  -2.767  -0.571  1.00  0.00     0.211 HD
ENDBRANCH  11  17
BRANCH  12  19
ATOM     19  O   UNL     1      -6.267  -1.206   2.601  1.00  0.00    -0.387 OA
ATOM     20  H   UNL     1      -6.839  -1.969   2.380  1.00  0.00     0.211 HD
ENDBRANCH  12  19
BRANCH  13  21
ATOM     21  O   UNL     1      -3.791   0.024   3.173  1.00  0.00    -0.387 OA
ATOM     22  H   UNL     1      -4.570  -0.139   3.743  1.00  0.00     0.211 HD
ENDBRANCH  13  21
ENDBRANCH   1   8
BRANCH   3  23
ATOM     23  C   UNL     1       0.536   2.342  -1.655  1.00  0.00     0.072 C 
BRANCH  23  24
ATOM     24  C   UNL     1       1.906   1.875  -1.212  1.00  0.00    -0.043 A 
ATOM     25  C   UNL     1       2.149   0.524  -0.932  1.00  0.00     0.008 A 
ATOM     26  C   UNL     1       2.959   2.786  -1.073  1.00  0.00     0.008 A 
ATOM     27  C   UNL     1       3.415   0.091  -0.519  1.00  0.00     0.047 A 
ATOM     28  C   UNL     1       4.221   2.351  -0.660  1.00  0.00     0.047 A 
ATOM     29  C   UNL     1       4.459   1.003  -0.381  1.00  0.00     0.119 A 
BRANCH  29  30
ATOM     30  O   UNL     1       5.737   0.725   0.011  1.00  0.00    -0.488 OA
BRANCH  30  31
ATOM     31  C   UNL     1       6.084  -0.621   0.302  1.00  0.00     0.201 C 
ATOM     32  C   UNL     1       6.427  -1.429  -0.931  1.00  0.00     0.076 C 
ATOM     33  C   UNL     1       7.416  -0.667   1.041  1.00  0.00     0.205 C 
ATOM     34  C   UNL     1       7.317  -2.512  -0.363  1.00  0.00     0.164 C 
ATOM     35  O   UNL     1       8.007  -1.945   0.759  1.00  0.00    -0.377 OA
ENDBRANCH  30  31
ENDBRANCH  29  30
ENDBRANCH  23  24
ENDBRANCH   3  23
TORSDOF 10
