REMARK SMILES CCOC(=O)[C@H](CCc1ccccc1)N[C@@H](C)C(=O)N1CCC[C@H]1C(=O)O
REMARK SMILES IDX 15 1 6 3 4 4 5 5 3 6 2 7 1 8 7 9 8 10 9 11 10 12 14 13 11 14
REMARK SMILES IDX 13 15 12 16 16 17 17 18 18 19 19 20 20 21 21 22 24 23 22 24
REMARK SMILES IDX 23 25 25 26 26 27 27 28
REMARK H PARENT 15 2 27 29
ROOT
ATOM      1  N   UNL     1       0.698  -0.090   0.561  1.00  0.00    -0.293 NA
ATOM      2  H   UNL     1       1.582  -0.611   0.655  1.00  0.00     0.124 HD
ENDROOT
BRANCH   1   3
ATOM      3  C   UNL     1      -0.377  -1.084   0.835  1.00  0.00     0.165 C 
BRANCH   3   4
ATOM      4  C   UNL     1      -0.157  -2.358  -0.008  1.00  0.00     0.323 C 
ATOM      5  O   UNL     1       0.902  -2.977  -0.010  1.00  0.00    -0.250 OA
BRANCH   4   6
ATOM      6  O   UNL     1      -1.253  -2.693  -0.739  1.00  0.00    -0.465 OA
BRANCH   6   7
ATOM      7  C   UNL     1      -1.086  -3.861  -1.553  1.00  0.00     0.229 C 
ATOM      8  C   UNL     1      -2.370  -4.078  -2.333  1.00  0.00     0.049 C 
ENDBRANCH   6   7
ENDBRANCH   4   6
ENDBRANCH   3   4
BRANCH   3   9
ATOM      9  C   UNL     1      -1.804  -0.511   0.793  1.00  0.00     0.036 C 
BRANCH   9  10
ATOM     10  C   UNL     1      -2.027   0.578   1.848  1.00  0.00     0.038 C 
BRANCH  10  11
ATOM     11  C   UNL     1      -3.458   1.058   1.858  1.00  0.00    -0.048 A 
ATOM     12  C   UNL     1      -4.419   0.415   2.650  1.00  0.00     0.004 A 
ATOM     13  C   UNL     1      -3.849   2.140   1.057  1.00  0.00     0.004 A 
ATOM     14  C   UNL     1      -5.745   0.853   2.650  1.00  0.00     0.000 A 
ATOM     15  C   UNL     1      -5.176   2.577   1.059  1.00  0.00     0.000 A 
ATOM     16  C   UNL     1      -6.123   1.935   1.857  1.00  0.00     0.000 A 
ENDBRANCH  10  11
ENDBRANCH   9  10
ENDBRANCH   3   9
ENDBRANCH   1   3
BRANCH   1  17
ATOM     17  C   UNL     1       0.667   0.466  -0.817  1.00  0.00     0.141 C 
ATOM     18  C   UNL     1       0.191   1.914  -0.832  1.00  0.00     0.035 C 
BRANCH  17  19
ATOM     19  C   UNL     1       2.054   0.308  -1.492  1.00  0.00     0.240 C 
ATOM     20  O   UNL     1       2.147  -0.338  -2.542  1.00  0.00    -0.273 OA
BRANCH  19  21
ATOM     21  N   UNL     1       3.172   0.855  -0.902  1.00  0.00    -0.328 N 
ATOM     22  C   UNL     1       3.260   1.777   0.221  1.00  0.00     0.120 C 
ATOM     23  C   UNL     1       4.495   0.584  -1.473  1.00  0.00     0.195 C 
ATOM     24  C   UNL     1       4.749   1.873   0.524  1.00  0.00     0.024 C 
ATOM     25  C   UNL     1       5.394   1.647  -0.840  1.00  0.00     0.039 C 
BRANCH  23  26
ATOM     26  C   UNL     1       5.019  -0.820  -1.137  1.00  0.00     0.326 C 
ATOM     27  O   UNL     1       6.055  -1.310  -1.564  1.00  0.00    -0.250 OA
BRANCH  26  28
ATOM     28  O   UNL     1       4.266  -1.503  -0.247  1.00  0.00    -0.480 OA
ATOM     29  H   UNL     1       4.678  -2.389  -0.202  1.00  0.00     0.296 HD
ENDBRANCH  26  28
ENDBRANCH  23  26
ENDBRANCH  19  21
ENDBRANCH  17  19
ENDBRANCH   1  17
TORSDOF 12
