REMARK SMILES NNc1cc2c(nn1)CCN(C(=O)c1ccccc1)C2
REMARK SMILES IDX 3 1 4 2 5 3 6 4 9 5 10 6 11 7 20 8 7 9 8 10 2 11 1 13 12 16
REMARK SMILES IDX 13 17 14 18 15 19 19 20 16 21 18 22 17 23
REMARK H PARENT 2 12 1 14 1 15
ROOT
ATOM      1  C   UNL     1      -3.599   0.514  -0.566  1.00  0.00     0.162 A 
ATOM      2  C   UNL     1      -2.233   0.766  -0.548  1.00  0.00     0.057 A 
ATOM      3  C   UNL     1      -1.413   0.087   0.359  1.00  0.00    -0.001 A 
ATOM      4  C   UNL     1      -2.015  -0.817   1.226  1.00  0.00     0.070 A 
ATOM      5  C   UNL     1      -1.202  -1.609   2.207  1.00  0.00     0.080 C 
ATOM      6  C   UNL     1       0.069  -0.854   2.569  1.00  0.00     0.126 C 
ATOM      7  N   UNL     1       0.796  -0.463   1.363  1.00  0.00    -0.334 N 
ATOM      8  C   UNL     1       0.066   0.362   0.401  1.00  0.00     0.157 C 
ATOM      9  N   UNL     1      -3.345  -1.045   1.198  1.00  0.00    -0.153 NA
ATOM     10  N   UNL     1      -4.138  -0.365   0.307  1.00  0.00    -0.131 NA
ENDROOT
BRANCH   1  11
ATOM     11  N   UNL     1      -4.415   1.242  -1.478  1.00  0.00    -0.307 N 
ATOM     12  H   UNL     1      -3.998   1.197  -2.411  1.00  0.00     0.183 HD
BRANCH  11  13
ATOM     13  N   UNL     1      -5.806   0.956  -1.460  1.00  0.00    -0.249 NA
ATOM     14  H   UNL     1      -5.945  -0.061  -1.426  1.00  0.00     0.143 HD
ATOM     15  H   UNL     1      -6.192   1.276  -0.565  1.00  0.00     0.143 HD
ENDBRANCH  11  13
ENDBRANCH   1  11
BRANCH   7  16
ATOM     16  C   UNL     1       2.140  -0.805   1.248  1.00  0.00     0.254 C 
ATOM     17  O   UNL     1       2.723  -1.559   2.022  1.00  0.00    -0.269 OA
BRANCH  16  18
ATOM     18  C   UNL     1       2.920  -0.243   0.126  1.00  0.00     0.040 A 
ATOM     19  C   UNL     1       3.176   1.131   0.061  1.00  0.00     0.014 A 
ATOM     20  C   UNL     1       3.433  -1.110  -0.842  1.00  0.00     0.014 A 
ATOM     21  C   UNL     1       3.921   1.641  -1.002  1.00  0.00     0.001 A 
ATOM     22  C   UNL     1       4.177  -0.593  -1.902  1.00  0.00     0.001 A 
ATOM     23  C   UNL     1       4.416   0.780  -1.984  1.00  0.00     0.000 A 
ENDBRANCH  16  18
ENDBRANCH   7  16
TORSDOF 4
