REMARK SMILES O=C1OC2(c3ccccc31)c1cc(Br)c(O)c(Br)c1Oc1c2cc(Br)c(O)c1Br
REMARK SMILES IDX 15 1 17 2 18 3 19 4 11 5 12 6 13 7 14 8 4 9 3 10 2 11 1 12
REMARK SMILES IDX 10 13 5 14 6 15 7 16 8 17 9 18 22 19 23 20 24 21 25 22 26 23
REMARK SMILES IDX 28 24 29 25 21 26 20 27 16 28 27 30
REMARK H PARENT 16 29 27 31
ROOT
ATOM      1  C   UNL     1      -1.734   3.760   0.009  1.00  0.00     0.147 A 
ATOM      2  C   UNL     1      -0.536   3.387  -0.609  1.00  0.00     0.104 A 
ATOM      3  Br  UNL     1       0.382   4.621  -1.734  1.00  0.00    -0.043 Br
ATOM      4  C   UNL     1      -0.009   2.102  -0.396  1.00  0.00     0.153 A 
ATOM      5  C   UNL     1      -0.682   1.179   0.418  1.00  0.00     0.050 A 
ATOM      6  C   UNL     1      -1.887   1.568   1.031  1.00  0.00     0.032 A 
ATOM      7  C   UNL     1      -2.403   2.849   0.830  1.00  0.00     0.061 A 
ATOM      8  Br  UNL     1      -4.031   3.321   1.679  1.00  0.00    -0.047 Br
ATOM      9  C   UNL     1      -0.114  -0.220   0.559  1.00  0.00     0.196 C 
ATOM     10  O   UNL     1      -0.349  -0.679   1.917  1.00  0.00    -0.440 OA
ATOM     11  C   UNL     1      -1.124  -1.803   1.959  1.00  0.00     0.340 C 
ATOM     12  O   UNL     1      -1.475  -2.399   2.956  1.00  0.00    -0.246 OA
ATOM     13  C   UNL     1      -1.447  -2.149   0.583  1.00  0.00     0.068 A 
ATOM     14  C   UNL     1      -0.860  -1.226  -0.259  1.00  0.00     0.020 A 
ATOM     15  C   UNL     1      -1.021  -1.337  -1.634  1.00  0.00     0.009 A 
ATOM     16  C   UNL     1      -1.785  -2.398  -2.130  1.00  0.00     0.001 A 
ATOM     17  C   UNL     1      -2.375  -3.328  -1.258  1.00  0.00     0.001 A 
ATOM     18  C   UNL     1      -2.208  -3.208   0.122  1.00  0.00     0.016 A 
ATOM     19  C   UNL     1       1.378  -0.245   0.292  1.00  0.00     0.050 A 
ATOM     20  C   UNL     1       2.213  -1.267   0.781  1.00  0.00     0.032 A 
ATOM     21  C   UNL     1       3.572  -1.282   0.464  1.00  0.00     0.061 A 
ATOM     22  Br  UNL     1       4.652  -2.683   1.149  1.00  0.00    -0.047 Br
ATOM     23  C   UNL     1       4.120  -0.288  -0.349  1.00  0.00     0.147 A 
ATOM     24  C   UNL     1       3.302   0.733  -0.844  1.00  0.00     0.104 A 
ATOM     25  Br  UNL     1       4.041   2.091  -1.958  1.00  0.00    -0.043 Br
ATOM     26  C   UNL     1       1.937   0.757  -0.515  1.00  0.00     0.153 A 
ATOM     27  O   UNL     1       1.170   1.778  -1.028  1.00  0.00    -0.454 OA
ENDROOT
BRANCH   1  28
ATOM     28  O   UNL     1      -2.241   5.016  -0.199  1.00  0.00    -0.505 OA
ATOM     29  H   UNL     1      -3.063   5.104   0.318  1.00  0.00     0.293 HD
ENDBRANCH   1  28
BRANCH  23  30
ATOM     30  O   UNL     1       5.453  -0.304  -0.669  1.00  0.00    -0.505 OA
ATOM     31  H   UNL     1       5.865  -1.069  -0.228  1.00  0.00     0.293 HD
ENDBRANCH  23  30
TORSDOF 2
