REMARK SMILES COc1ccc2c(c1)CC[C@@H]1[C@@H]2CC[C@]2(C)[C@H](O)[C@H](O)C[C@@H]12
REMARK SMILES IDX 3 1 8 2 7 3 6 4 5 5 4 6 12 7 13 8 14 9 15 10 16 11 17 12
REMARK SMILES IDX 19 13 21 14 22 15 11 16 10 17 9 18 2 19 1 20 18 21 20 23
REMARK H PARENT 18 22 20 24
ROOT
ATOM      1  C   UNL     1       4.435   1.241   0.094  1.00  0.00     0.119 A 
ATOM      2  C   UNL     1       3.824   0.223  -0.635  1.00  0.00     0.050 A 
ATOM      3  C   UNL     1       2.479  -0.131  -0.401  1.00  0.00    -0.041 A 
ATOM      4  C   UNL     1       1.720   0.568   0.561  1.00  0.00    -0.041 A 
ATOM      5  C   UNL     1       2.359   1.575   1.301  1.00  0.00     0.008 A 
ATOM      6  C   UNL     1       3.696   1.909   1.064  1.00  0.00     0.047 A 
ATOM      7  C   UNL     1       0.273   0.172   0.849  1.00  0.00     0.023 C 
ATOM      8  C   UNL     1      -0.641   1.330   1.329  1.00  0.00     0.009 C 
ATOM      9  C   UNL     1      -2.101   0.901   1.562  1.00  0.00     0.010 C 
ATOM     10  C   UNL     1      -2.691   0.180   0.342  1.00  0.00    -0.001 C 
ATOM     11  C   UNL     1      -2.869   1.189  -0.820  1.00  0.00     0.014 C 
ATOM     12  C   UNL     1      -4.033  -0.550   0.558  1.00  0.00     0.149 C 
ATOM     13  C   UNL     1      -4.046  -1.638  -0.550  1.00  0.00     0.144 C 
ATOM     14  C   UNL     1      -2.583  -1.833  -0.997  1.00  0.00     0.039 C 
ATOM     15  C   UNL     1      -1.774  -1.020   0.013  1.00  0.00     0.004 C 
ATOM     16  C   UNL     1      -0.359  -0.577  -0.363  1.00  0.00     0.001 C 
ATOM     17  C   UNL     1       0.544  -1.752  -0.744  1.00  0.00     0.009 C 
ATOM     18  C   UNL     1       1.887  -1.233  -1.248  1.00  0.00     0.036 C 
ENDROOT
BRANCH   1  19
ATOM     19  O   UNL     1       5.727   1.668  -0.040  1.00  0.00    -0.497 OA
ATOM     20  C   UNL     1       6.523   1.012  -1.018  1.00  0.00     0.278 C 
ENDBRANCH   1  19
BRANCH  12  21
ATOM     21  O   UNL     1      -4.080  -1.184   1.840  1.00  0.00    -0.390 OA
ATOM     22  H   UNL     1      -4.950  -1.625   1.881  1.00  0.00     0.211 HD
ENDBRANCH  12  21
BRANCH  13  23
ATOM     23  O   UNL     1      -4.592  -2.856  -0.050  1.00  0.00    -0.390 OA
ATOM     24  H   UNL     1      -4.015  -3.121   0.692  1.00  0.00     0.211 HD
ENDBRANCH  13  23
TORSDOF 3
