REMARK SMILES CCCCc1ncc(/C=C(\Cc2cccs2)C(=O)O)n1Cc1ccc(C(=O)O)cc1
REMARK SMILES IDX 5 1 6 2 7 3 8 4 20 5 4 6 3 7 2 8 1 9 21 10 22 11 23 12 30 13
REMARK SMILES IDX 24 14 29 15 25 16 26 17 27 18 28 19 9 21 10 22 11 23 12 24
REMARK SMILES IDX 13 25 16 26 14 27 15 28 17 29 18 30 19 31
REMARK H PARENT 28 20 19 32
ROOT
ATOM      1  C   UNL     1      -0.467   1.727   1.231  1.00  0.00     0.109 A 
ATOM      2  N   UNL     1       0.412   1.801   2.211  1.00  0.00    -0.241 NA
ATOM      3  C   UNL     1       1.132   0.641   2.163  1.00  0.00     0.139 A 
ATOM      4  C   UNL     1       0.712  -0.160   1.126  1.00  0.00     0.061 A 
ATOM      5  N   UNL     1      -0.339   0.530   0.549  1.00  0.00    -0.324 N 
ENDROOT
BRANCH   1   6
ATOM      6  C   UNL     1      -1.462   2.798   0.913  1.00  0.00     0.075 C 
BRANCH   6   7
ATOM      7  C   UNL     1      -0.919   3.769  -0.136  1.00  0.00     0.008 C 
BRANCH   7   8
ATOM      8  C   UNL     1      -1.933   4.869  -0.450  1.00  0.00    -0.003 C 
ATOM      9  C   UNL     1      -1.398   5.840  -1.490  1.00  0.00     0.004 C 
ENDBRANCH   7   8
ENDBRANCH   6   7
ENDBRANCH   1   6
BRANCH   5  10
ATOM     10  C   UNL     1      -1.118   0.113  -0.613  1.00  0.00     0.159 C 
BRANCH  10  11
ATOM     11  C   UNL     1      -2.069  -1.021  -0.306  1.00  0.00    -0.028 A 
ATOM     12  C   UNL     1      -2.048  -2.183  -1.093  1.00  0.00     0.006 A 
ATOM     13  C   UNL     1      -3.007  -0.928   0.735  1.00  0.00     0.006 A 
ATOM     14  C   UNL     1      -2.930  -3.236  -0.832  1.00  0.00     0.016 A 
ATOM     15  C   UNL     1      -3.890  -1.981   0.996  1.00  0.00     0.016 A 
ATOM     16  C   UNL     1      -3.854  -3.139   0.213  1.00  0.00     0.059 A 
BRANCH  16  17
ATOM     17  C   UNL     1      -4.770  -4.281   0.450  1.00  0.00     0.335 C 
ATOM     18  O   UNL     1      -4.787  -5.323  -0.179  1.00  0.00    -0.246 OA
BRANCH  17  19
ATOM     19  O   UNL     1      -5.626  -4.063   1.464  1.00  0.00    -0.478 OA
ATOM     20  H   UNL     1      -6.156  -4.886   1.506  1.00  0.00     0.297 HD
ENDBRANCH  17  19
ENDBRANCH  16  17
ENDBRANCH  10  11
ENDBRANCH   5  10
BRANCH   4  21
ATOM     21  C   UNL     1       1.112  -1.432   0.659  1.00  0.00     0.039 C 
ATOM     22  C   UNL     1       2.174  -1.607  -0.150  1.00  0.00     0.044 C 
BRANCH  22  23
ATOM     23  C   UNL     1       3.080  -0.533  -0.707  1.00  0.00     0.090 C 
BRANCH  23  24
ATOM     24  C   UNL     1       4.488  -0.549  -0.169  1.00  0.00     0.009 A 
ATOM     25  C   UNL     1       4.913  -0.324   1.127  1.00  0.00     0.016 A 
ATOM     26  S   UNL     1       5.810  -0.865  -1.214  1.00  0.00    -0.149 S 
ATOM     27  C   UNL     1       6.328  -0.428   1.262  1.00  0.00     0.012 A 
ATOM     28  C   UNL     1       6.938  -0.720   0.062  1.00  0.00     0.065 A 
ENDBRANCH  23  24
ENDBRANCH  22  23
BRANCH  22  29
ATOM     29  C   UNL     1       2.471  -2.974  -0.636  1.00  0.00     0.332 C 
ATOM     30  O   UNL     1       3.023  -3.247  -1.687  1.00  0.00    -0.247 OA
BRANCH  29  31
ATOM     31  O   UNL     1       2.076  -3.941   0.210  1.00  0.00    -0.478 OA
ATOM     32  H   UNL     1       2.373  -4.767  -0.226  1.00  0.00     0.297 HD
ENDBRANCH  29  31
ENDBRANCH  22  29
ENDBRANCH   4  21
TORSDOF 12
