REMARK SMILES N=C(N)NCCCC[C@@H]1NC(=O)CCSSC[C@@H](C(N)=O)NC(=O)[C@@H]2CCCN2C(=O)[C@H](Cc2c[nH]c3ccccc23)NC(=O)[C@H](CC(=O)O)NC(=O)CNC1=O
REMARK SMILES IDX 46 1 51 2 52 3 53 4 54 6 55 7 56 8 57 9 9 11 8 12 7 13 6 14
REMARK SMILES IDX 5 15 4 16 3 17 2 18 1 19 10 24 11 25 12 26 13 28 44 30 43 31
REMARK SMILES IDX 45 32 32 34 30 35 31 36 29 37 28 38 25 39 27 40 26 41 23 42
REMARK SMILES IDX 22 43 24 44 18 46 17 47 16 48 15 49 14 50 19 52 20 53 21 54
REMARK SMILES IDX 33 57 34 58 35 59 42 60 36 61 37 62 41 63 38 64 40 65 39 66
REMARK SMILES IDX 47 68 48 69 49 70 50 71
REMARK H PARENT 51 5 55 10 3 20 3 21 1 22 4 23 10 27 43 33 22 45 20 55 20 56
REMARK H PARENT 36 67 50 72
REMARK Flexibility Score:  262.900
ROOT
ATOM      1  C   UNL     1       0.683  -2.713   0.093  1.00  0.00     0.182 C 
ENDROOT
BRANCH   1   2
ATOM      2  N   UNL     1       1.787  -2.490  -0.836  1.00  0.00    -0.342 N 
ATOM      3  C   UNL     1       2.864  -3.344  -0.915  1.00  0.00     0.240 C 
ATOM      4  O   UNL     1       2.906  -4.419  -0.317  1.00  0.00    -0.273 OA
ATOM      5  H   UNL     1       1.699  -1.752  -1.538  1.00  0.00     0.164 HD
BRANCH   3   6
ATOM      6  C   UNL     1       3.993  -2.880  -1.841  1.00  0.00     0.216 C 
BRANCH   6   7
ATOM      7  N   UNL     1       4.505  -1.589  -1.413  1.00  0.00    -0.345 N 
ATOM      8  C   UNL     1       3.903  -0.415  -1.783  1.00  0.00     0.243 C 
ATOM      9  O   UNL     1       2.948  -0.388  -2.556  1.00  0.00    -0.273 OA
ATOM     10  H   UNL     1       5.215  -1.585  -0.687  1.00  0.00     0.164 HD
BRANCH   8  11
ATOM     11  C   UNL     1       4.437   0.853  -1.101  1.00  0.00     0.171 C 
BRANCH  11  12
ATOM     12  C   UNL     1       3.852   0.983   0.318  1.00  0.00     0.035 C 
BRANCH  12  13
ATOM     13  C   UNL     1       4.676   0.367   1.459  1.00  0.00     0.004 C 
BRANCH  13  14
ATOM     14  C   UNL     1       5.901   1.200   1.873  1.00  0.00     0.021 C 
BRANCH  14  15
ATOM     15  C   UNL     1       7.168   0.929   1.057  1.00  0.00     0.116 C 
BRANCH  15  16
ATOM     16  N   UNL     1       8.182   0.269   1.867  1.00  0.00    -0.357 N 
ATOM     17  N   UNL     1       9.068  -1.399   3.050  1.00  0.00    -0.370 N 
ATOM     18  C   UNL     1       8.127  -1.055   2.145  1.00  0.00     0.185 C 
ATOM     19  N   UNL     1       7.300  -1.890   1.622  1.00  0.00    -0.270 NA
ATOM     20  H   UNL     1       9.949  -0.915   2.914  1.00  0.00     0.159 HD
ATOM     21  H   UNL     1       9.216  -2.401   3.144  1.00  0.00     0.159 HD
ATOM     22  H   UNL     1       7.462  -2.814   2.028  1.00  0.00     0.191 HD
ATOM     23  H   UNL     1       8.510   0.839   2.639  1.00  0.00     0.163 HD
ENDBRANCH  15  16
ENDBRANCH  14  15
ENDBRANCH  13  14
ENDBRANCH  12  13
ENDBRANCH  11  12
BRANCH  11  24
ATOM     24  N   UNL     1       4.035   1.991  -1.920  1.00  0.00    -0.344 N 
ATOM     25  C   UNL     1       4.611   3.224  -1.764  1.00  0.00     0.221 C 
ATOM     26  O   UNL     1       5.536   3.438  -0.980  1.00  0.00    -0.275 OA
ATOM     27  H   UNL     1       3.188   1.886  -2.473  1.00  0.00     0.164 HD
BRANCH  25  28
ATOM     28  C   UNL     1       3.992   4.322  -2.591  1.00  0.00     0.112 CG0
ATOM     29  G   UNL     1       2.948   5.083  -1.782  1.00  0.00     0.000 G0
ENDBRANCH  25  28
ENDBRANCH  11  24
ENDBRANCH   8  11
ENDBRANCH   6   7
ENDBRANCH   3   6
ENDBRANCH   1   2
BRANCH   1  30
ATOM     30  C   UNL     1      -0.639  -2.270  -0.576  1.00  0.00     0.243 C 
ATOM     31  N   UNL     1      -1.760  -2.464   0.199  1.00  0.00    -0.342 N 
ATOM     32  O   UNL     1      -0.696  -1.840  -1.724  1.00  0.00    -0.273 OA
ATOM     33  H   UNL     1      -1.651  -2.445   1.212  1.00  0.00     0.164 HD
BRANCH  31  34
ATOM     34  C   UNL     1      -3.119  -2.180  -0.294  1.00  0.00     0.176 C 
BRANCH  34  35
ATOM     35  C   UNL     1      -3.413  -0.697   0.046  1.00  0.00     0.246 C 
ATOM     36  O   UNL     1      -3.233  -0.285   1.198  1.00  0.00    -0.272 OA
BRANCH  35  37
ATOM     37  N   UNL     1      -3.764   0.159  -1.004  1.00  0.00    -0.329 N 
ATOM     38  C   UNL     1      -4.758  -0.275  -1.979  1.00  0.00     0.120 C 
ATOM     39  C   UNL     1      -4.101   1.548  -0.693  1.00  0.00     0.174 C 
ATOM     40  C   UNL     1      -6.016   0.558  -1.655  1.00  0.00     0.024 C 
ATOM     41  C   UNL     1      -5.605   1.499  -0.517  1.00  0.00     0.037 C 
BRANCH  39  42
ATOM     42  C   UNL     1      -3.296   2.371   0.322  1.00  0.00     0.243 C 
ATOM     43  N   UNL     1      -1.938   2.417   0.036  1.00  0.00    -0.342 N 
ATOM     44  O   UNL     1      -3.816   3.087   1.177  1.00  0.00    -0.273 OA
ATOM     45  H   UNL     1      -1.677   2.084  -0.886  1.00  0.00     0.164 HD
BRANCH  43  46
ATOM     46  C   UNL     1      -1.152   3.527   0.563  1.00  0.00     0.182 C 
BRANCH  46  47
ATOM     47  C   UNL     1       0.358   3.281   0.446  1.00  0.00     0.116 C 
BRANCH  47  48
ATOM     48  S   UNL     1       0.943   2.812  -1.239  1.00  0.00    -0.091 SA
BRANCH  48  49
ATOM     49  S   UNL     1       1.229   4.611  -2.194  1.00  0.00    -0.094 SA
BRANCH  49  50
ATOM     50  C   UNL     1       2.948   5.083  -1.782  1.00  0.00     0.091 CG0
ATOM     51  G   UNL     1       3.992   4.322  -2.591  1.00  0.00     0.000 G0
ENDBRANCH  49  50
ENDBRANCH  48  49
ENDBRANCH  47  48
ENDBRANCH  46  47
BRANCH  46  52
ATOM     52  C   UNL     1      -1.564   4.831  -0.151  1.00  0.00     0.240 C 
ATOM     53  N   UNL     1      -1.265   5.993   0.510  1.00  0.00    -0.368 N 
ATOM     54  O   UNL     1      -2.104   4.874  -1.256  1.00  0.00    -0.273 OA
ATOM     55  H   UNL     1      -1.343   6.000   1.515  1.00  0.00     0.159 HD
ATOM     56  H   UNL     1      -1.637   6.818   0.051  1.00  0.00     0.159 HD
ENDBRANCH  46  52
ENDBRANCH  43  46
ENDBRANCH  39  42
ENDBRANCH  35  37
ENDBRANCH  34  35
BRANCH  34  57
ATOM     57  C   UNL     1      -4.086  -3.112   0.461  1.00  0.00     0.072 C 
BRANCH  57  58
ATOM     58  C   UNL     1      -5.409  -3.328  -0.207  1.00  0.00    -0.020 A 
ATOM     59  C   UNL     1      -5.655  -4.168  -1.276  1.00  0.00     0.087 A 
ATOM     60  C   UNL     1      -6.662  -2.741   0.152  1.00  0.00     0.003 A 
ATOM     61  N   UNL     1      -6.984  -4.083  -1.597  1.00  0.00    -0.361 N 
ATOM     62  C   UNL     1      -7.622  -3.218  -0.742  1.00  0.00     0.046 A 
ATOM     63  C   UNL     1      -7.069  -1.832   1.149  1.00  0.00     0.010 A 
ATOM     64  C   UNL     1      -8.967  -2.830  -0.693  1.00  0.00     0.026 A 
ATOM     65  C   UNL     1      -8.409  -1.420   1.206  1.00  0.00     0.001 A 
ATOM     66  C   UNL     1      -9.339  -1.916   0.298  1.00  0.00     0.002 A 
ATOM     67  H   UNL     1      -7.435  -4.592  -2.347  1.00  0.00     0.166 HD
ENDBRANCH  57  58
ENDBRANCH  34  57
ENDBRANCH  31  34
ENDBRANCH   1  30
BRANCH   1  68
ATOM     68  C   UNL     1       0.954  -1.972   1.400  1.00  0.00     0.157 C 
BRANCH  68  69
ATOM     69  C   UNL     1       0.523  -2.807   2.569  1.00  0.00     0.305 C 
ATOM     70  O   UNL     1       1.227  -3.507   3.276  1.00  0.00    -0.252 OA
BRANCH  69  71
ATOM     71  O   UNL     1      -0.806  -2.735   2.795  1.00  0.00    -0.481 OA
ATOM     72  H   UNL     1      -0.931  -3.273   3.611  1.00  0.00     0.296 HD
ENDBRANCH  69  71
ENDBRANCH  68  69
ENDBRANCH   1  68
TORSDOF 11
