REMARK SMILES COc1cc(OC)cc(N(CCNC(C)C)c2ccc3ncc(-c4cnn(C)c4)nc3c2)c1
REMARK SMILES IDX 11 1 10 2 9 3 3 4 33 5 4 6 5 7 8 8 2 9 1 10 6 11 7 12 17 13
REMARK SMILES IDX 32 14 18 15 31 16 19 17 30 18 20 19 23 20 21 21 22 22 24 23
REMARK SMILES IDX 29 24 25 25 27 26 26 27 28 28 12 29 13 30 14 32 15 33 16 34
REMARK H PARENT 13 31
ROOT
ATOM      1  C   UNL     1      -2.773   1.122   0.931  1.00  0.00     0.138 C 
ENDROOT
BRANCH   1   2
ATOM      2  N   UNL     1      -1.779   0.019   0.899  1.00  0.00    -0.340 N 
BRANCH   2   3
ATOM      3  C   UNL     1      -2.214  -1.249   0.434  1.00  0.00     0.049 A 
ATOM      4  C   UNL     1      -3.691  -2.681  -0.900  1.00  0.00     0.124 A 
ATOM      5  C   UNL     1      -3.281  -1.414  -0.463  1.00  0.00     0.073 A 
ATOM      6  C   UNL     1      -3.028  -3.813  -0.437  1.00  0.00     0.093 A 
ATOM      7  C   UNL     1      -1.963  -3.688   0.456  1.00  0.00     0.124 A 
ATOM      8  C   UNL     1      -1.569  -2.418   0.886  1.00  0.00     0.073 A 
BRANCH   4   9
ATOM      9  O   UNL     1      -4.741  -2.667  -1.778  1.00  0.00    -0.497 OA
ATOM     10  C   UNL     1      -5.240  -3.931  -2.202  1.00  0.00     0.278 C 
ENDBRANCH   4   9
BRANCH   7  11
ATOM     11  O   UNL     1      -1.398  -4.876   0.837  1.00  0.00    -0.497 OA
ATOM     12  C   UNL     1      -0.255  -4.805   1.681  1.00  0.00     0.278 C 
ENDBRANCH   7  11
ENDBRANCH   2   3
BRANCH   2  13
ATOM     13  C   UNL     1      -0.436   0.387   1.162  1.00  0.00     0.043 A 
ATOM     14  C   UNL     1       0.611  -0.094   0.355  1.00  0.00     0.056 A 
ATOM     15  C   UNL     1      -0.089   1.231   2.220  1.00  0.00     0.028 A 
ATOM     16  C   UNL     1       1.943   0.247   0.571  1.00  0.00     0.091 A 
ATOM     17  C   UNL     1       1.244   1.583   2.452  1.00  0.00     0.033 A 
ATOM     18  N   UNL     1       2.900  -0.244  -0.244  1.00  0.00    -0.244 NA
ATOM     19  C   UNL     1       2.265   1.108   1.645  1.00  0.00     0.089 A 
ATOM     20  C   UNL     1       4.179   0.126   0.007  1.00  0.00     0.092 A 
ATOM     21  N   UNL     1       3.535   1.473   1.899  1.00  0.00    -0.252 NA
ATOM     22  C   UNL     1       4.479   0.970   1.066  1.00  0.00     0.140 A 
BRANCH  20  23
ATOM     23  C   UNL     1       5.182  -0.416  -0.888  1.00  0.00     0.040 A 
ATOM     24  C   UNL     1       6.534  -0.129  -0.892  1.00  0.00     0.118 A 
ATOM     25  C   UNL     1       5.028  -1.338  -1.949  1.00  0.00     0.145 A 
ATOM     26  N   UNL     1       7.078  -0.865  -1.908  1.00  0.00    -0.275 N 
ATOM     27  N   UNL     1       6.180  -1.618  -2.565  1.00  0.00    -0.181 NA
ATOM     28  C   UNL     1       8.462  -0.902  -2.309  1.00  0.00     0.173 C 
ENDBRANCH  20  23
ENDBRANCH   2  13
ENDBRANCH   1   2
BRANCH   1  29
ATOM     29  C   UNL     1      -2.607   2.080  -0.271  1.00  0.00     0.103 C 
BRANCH  29  30
ATOM     30  N   UNL     1      -3.655   3.111  -0.319  1.00  0.00    -0.313 NA
ATOM     31  H   UNL     1      -3.980   3.197  -1.283  1.00  0.00     0.123 HD
BRANCH  30  32
ATOM     32  C   UNL     1      -3.264   4.449   0.150  1.00  0.00     0.047 C 
ATOM     33  C   UNL     1      -2.318   5.153  -0.826  1.00  0.00     0.024 C 
ATOM     34  C   UNL     1      -2.705   4.472   1.573  1.00  0.00     0.024 C 
ENDBRANCH  30  32
ENDBRANCH  29  30
ENDBRANCH   1  29
TORSDOF 9
