REMARK SMILES CN(C)CCC[C@@]1(c2ccc(F)cc2)OCc2cc(C#N)ccc21
REMARK SMILES IDX 5 1 4 2 2 3 1 4 3 5 6 6 7 7 15 8 24 9 16 10 17 11 23 12
REMARK SMILES IDX 18 13 22 14 19 15 20 16 21 17 8 18 9 19 14 20 10 21 13 22
REMARK SMILES IDX 11 23 12 24
REMARK H PARENT
ROOT
ATOM      1  C   UNL     1       1.680   1.296  -0.486  1.00  0.00     0.019 C 
ENDROOT
BRANCH   1   2
ATOM      2  C   UNL     1       2.513   0.979   0.766  1.00  0.00     0.084 C 
BRANCH   2   3
ATOM      3  N   UNL     1       3.381  -0.203   0.628  1.00  0.00    -0.309 NA
ATOM      4  C   UNL     1       4.488   0.032  -0.299  1.00  0.00     0.104 C 
ATOM      5  C   UNL     1       3.904  -0.596   1.938  1.00  0.00     0.104 C 
ENDBRANCH   2   3
ENDBRANCH   1   2
BRANCH   1   6
ATOM      6  C   UNL     1       0.816   0.142  -1.029  1.00  0.00     0.047 C 
BRANCH   6   7
ATOM      7  C   UNL     1      -0.460  -0.217  -0.229  1.00  0.00     0.119 C 
ATOM      8  O   UNL     1      -0.115  -0.518   1.155  1.00  0.00    -0.361 OA
ATOM      9  C   UNL     1      -1.412   0.943  -0.059  1.00  0.00    -0.006 A 
ATOM     10  C   UNL     1      -1.186  -0.098   2.026  1.00  0.00     0.198 C 
ATOM     11  C   UNL     1      -1.835   0.996   1.265  1.00  0.00    -0.015 A 
ATOM     12  C   UNL     1      -1.855   1.886  -0.979  1.00  0.00     0.009 A 
ATOM     13  C   UNL     1      -2.732   1.957   1.705  1.00  0.00     0.026 A 
ATOM     14  C   UNL     1      -2.754   2.869  -0.552  1.00  0.00     0.020 A 
ATOM     15  C   UNL     1      -3.195   2.904   0.784  1.00  0.00     0.052 A 
ATOM     16  C   UNL     1      -4.119   3.918   1.203  1.00  0.00     0.099 C 
ATOM     17  N   UNL     1      -4.866   4.739   1.543  1.00  0.00    -0.192 NA
BRANCH   7  18
ATOM     18  C   UNL     1      -1.086  -1.493  -0.823  1.00  0.00    -0.012 A 
ATOM     19  C   UNL     1      -2.183  -1.469  -1.704  1.00  0.00     0.010 A 
ATOM     20  C   UNL     1      -0.519  -2.748  -0.511  1.00  0.00     0.010 A 
ATOM     21  C   UNL     1      -2.703  -2.654  -2.234  1.00  0.00     0.039 A 
ATOM     22  C   UNL     1      -1.039  -3.930  -1.041  1.00  0.00     0.039 A 
ATOM     23  C   UNL     1      -2.129  -3.872  -1.896  1.00  0.00     0.123 A 
ATOM     24  F   UNL     1      -2.631  -5.003  -2.408  1.00  0.00    -0.207 F 
ENDBRANCH   7  18
ENDBRANCH   6   7
ENDBRANCH   1   6
TORSDOF 5
