REMARK SMILES C[C@H](C(=O)O)c1ccc(-c2ccccc2)c(F)c1
REMARK SMILES IDX 3 1 4 2 2 3 1 4 6 5 18 6 7 7 16 8 8 9 9 10 17 11 10 12 11 13
REMARK SMILES IDX 15 14 12 15 14 16 13 17 5 18
REMARK H PARENT 5 19
ROOT
ATOM      1  C   UNL     1       4.072   0.900  -0.426  1.00  0.00     0.310 C 
ATOM      2  O   UNL     1       4.570   1.365   0.587  1.00  0.00    -0.252 OA
ENDROOT
BRANCH   1   3
ATOM      3  C   UNL     1       3.359  -0.433  -0.566  1.00  0.00     0.126 C 
ATOM      4  C   UNL     1       3.934  -1.451   0.421  1.00  0.00     0.025 C 
BRANCH   3   5
ATOM      5  C   UNL     1       1.856  -0.285  -0.419  1.00  0.00    -0.031 A 
ATOM      6  C   UNL     1       1.277   0.174   0.772  1.00  0.00     0.044 A 
ATOM      7  C   UNL     1       1.009  -0.605  -1.488  1.00  0.00     0.005 A 
ATOM      8  C   UNL     1      -0.109   0.303   0.883  1.00  0.00     0.131 A 
ATOM      9  C   UNL     1      -0.380  -0.474  -1.367  1.00  0.00     0.012 A 
ATOM     10  C   UNL     1      -0.970  -0.019  -0.175  1.00  0.00     0.017 A 
ATOM     11  F   UNL     1      -0.604   0.740   2.052  1.00  0.00    -0.206 F 
BRANCH  10  12
ATOM     12  C   UNL     1      -2.434   0.116  -0.060  1.00  0.00    -0.015 A 
ATOM     13  C   UNL     1      -3.290  -0.938  -0.426  1.00  0.00     0.009 A 
ATOM     14  C   UNL     1      -3.022   1.302   0.411  1.00  0.00     0.009 A 
ATOM     15  C   UNL     1      -4.679  -0.810  -0.327  1.00  0.00     0.001 A 
ATOM     16  C   UNL     1      -4.410   1.432   0.510  1.00  0.00     0.001 A 
ATOM     17  C   UNL     1      -5.238   0.376   0.140  1.00  0.00     0.000 A 
ENDBRANCH  10  12
ENDBRANCH   3   5
ENDBRANCH   1   3
BRANCH   1  18
ATOM     18  O   UNL     1       4.102   1.600  -1.580  1.00  0.00    -0.481 OA
ATOM     19  H   UNL     1       4.548   2.438  -1.338  1.00  0.00     0.296 HD
ENDBRANCH   1  18
TORSDOF 4
