REMARK SMILES CC(=O)O[C@H]1Cc2ccccc2N(C(N)=O)c2ccccc21
REMARK SMILES IDX 17 1 18 2 19 3 20 4 21 5 22 6 5 7 4 9 2 10 3 11 1 12 13 13
REMARK SMILES IDX 12 14 7 15 11 16 8 17 10 18 9 19 6 20 14 22 15 23 16 24
REMARK H PARENT 15 25 15 26
REMARK Flexibility Score:   28.900
ROOT
ATOM      1  C   UNL     1      -0.562   1.355   0.128  1.00  0.00     0.058 A 
ATOM      2  C   UNL     1      -0.869   2.734   0.041  1.00  0.00     0.027 A 
ATOM      3  C   UNL     1       0.085   3.693  -0.304  1.00  0.00     0.002 A 
ATOM      4  C   UNL     1       1.380   3.298  -0.587  1.00  0.00     0.001 A 
ATOM      5  C   UNL     1       1.710   1.947  -0.521  1.00  0.00     0.010 A 
ATOM      6  C   UNL     1       0.763   0.953  -0.158  1.00  0.00     0.017 A 
ENDROOT
BRANCH   6   7
ATOM      7  C   UNL     1       1.311  -0.468  -0.102  1.00  0.00     0.213 CG0
ATOM      8  G   UNL     1       0.347  -1.577   0.308  1.00  0.00     0.000 G0
BRANCH   7   9
ATOM      9  O   UNL     1       2.397  -0.451   0.858  1.00  0.00    -0.457 OA
BRANCH   9  10
ATOM     10  C   UNL     1       3.399  -1.342   0.638  1.00  0.00     0.303 C 
ATOM     11  O   UNL     1       3.447  -2.147  -0.280  1.00  0.00    -0.253 OA
ATOM     12  C   UNL     1       4.451  -1.201   1.696  1.00  0.00     0.139 C 
ENDBRANCH   9  10
ENDBRANCH   7   9
ENDBRANCH   6   7
BRANCH   1  13
ATOM     13  N   UNL     1      -1.643   0.448   0.440  1.00  0.00    -0.263 N 
BRANCH  13  14
ATOM     14  C   UNL     1      -1.815  -0.617  -0.501  1.00  0.00     0.054 A 
ATOM     15  C   UNL     1      -0.841  -1.619  -0.604  1.00  0.00    -0.020 A 
ATOM     16  C   UNL     1      -2.964  -0.699  -1.299  1.00  0.00     0.027 A 
ATOM     17  C   UNL     1      -1.001  -2.662  -1.529  1.00  0.00     0.006 A 
ATOM     18  C   UNL     1      -3.122  -1.741  -2.215  1.00  0.00     0.002 A 
ATOM     19  C   UNL     1      -2.138  -2.718  -2.334  1.00  0.00     0.000 A 
BRANCH  15  20
ATOM     20  C   UNL     1       0.347  -1.577   0.308  1.00  0.00     0.088 CG0
ATOM     21  G   UNL     1       1.311  -0.468  -0.102  1.00  0.00     0.000 G0
ENDBRANCH  15  20
ENDBRANCH  13  14
BRANCH  13  22
ATOM     22  C   UNL     1      -2.707   0.776   1.291  1.00  0.00     0.323 C 
ATOM     23  N   UNL     1      -2.423   1.700   2.261  1.00  0.00    -0.351 N 
ATOM     24  O   UNL     1      -3.823   0.263   1.310  1.00  0.00    -0.248 OA
ATOM     25  H   UNL     1      -3.145   1.763   2.967  1.00  0.00     0.161 HD
ATOM     26  H   UNL     1      -1.475   1.705   2.610  1.00  0.00     0.161 HD
ENDBRANCH  13  22
ENDBRANCH   1  13
TORSDOF 3
