REMARK SMILES C=CCC1(CC)C(=O)NC(=O)NC1=O
REMARK SMILES IDX 4 1 7 2 8 3 9 4 10 5 11 6 12 7 13 8 14 9 5 12 6 13 3 14 2 15
REMARK SMILES IDX 1 16
REMARK H PARENT 9 10 12 11
ROOT
ATOM      1  C   UNL     1      -0.339  -0.027  -0.271  1.00  0.00     0.132 C 
ATOM      2  C   UNL     1      -1.768  -0.148   0.261  1.00  0.00     0.244 C 
ATOM      3  O   UNL     1      -2.528   0.795   0.454  1.00  0.00    -0.273 OA
ATOM      4  N   UNL     1      -2.179  -1.423   0.545  1.00  0.00    -0.277 N 
ATOM      5  C   UNL     1      -1.820  -2.484  -0.226  1.00  0.00     0.328 C 
ATOM      6  O   UNL     1      -2.551  -3.460  -0.353  1.00  0.00    -0.248 OA
ATOM      7  N   UNL     1      -0.663  -2.368  -0.932  1.00  0.00    -0.277 N 
ATOM      8  C   UNL     1      -0.137  -1.154  -1.286  1.00  0.00     0.244 C 
ATOM      9  O   UNL     1       0.471  -1.035  -2.347  1.00  0.00    -0.273 OA
ATOM     10  H   UNL     1      -3.129  -1.485   0.890  1.00  0.00     0.174 HD
ATOM     11  H   UNL     1      -0.531  -3.098  -1.620  1.00  0.00     0.174 HD
ENDROOT
BRANCH   1  12
ATOM     12  C   UNL     1      -0.122   1.341  -0.970  1.00  0.00     0.024 C 
ATOM     13  C   UNL     1      -0.066   2.569  -0.065  1.00  0.00     0.005 C 
ENDBRANCH   1  12
BRANCH   1  14
ATOM     14  C   UNL     1       0.624  -0.270   0.925  1.00  0.00     0.053 C 
BRANCH  14  15
ATOM     15  C   UNL     1       2.093  -0.168   0.601  1.00  0.00    -0.033 C 
ATOM     16  C   UNL     1       2.951   0.628   1.252  1.00  0.00     0.004 C 
ENDBRANCH  14  15
ENDBRANCH   1  14
TORSDOF 3
