REMARK SMILES CCN(CC)C(=O)c1ccc(O)c(OC)c1
REMARK SMILES IDX 8 1 16 2 13 3 11 4 10 5 9 6 6 7 3 8 7 9 2 10 1 11 4 12 5 13
REMARK SMILES IDX 14 14 15 15 12 16
REMARK H PARENT 12 17
ROOT
ATOM      1  C   UNL     1       0.515  -0.534  -0.628  1.00  0.00     0.043 A 
ATOM      2  C   UNL     1       1.531   0.307  -0.156  1.00  0.00     0.064 A 
ATOM      3  C   UNL     1       2.729  -0.244   0.303  1.00  0.00     0.161 A 
ATOM      4  C   UNL     1       2.893  -1.639   0.263  1.00  0.00     0.157 A 
ATOM      5  C   UNL     1       1.891  -2.474  -0.237  1.00  0.00     0.051 A 
ATOM      6  C   UNL     1       0.698  -1.918  -0.694  1.00  0.00     0.018 A 
ENDROOT
BRANCH   1   7
ATOM      7  C   UNL     1      -0.731   0.076  -1.132  1.00  0.00     0.253 C 
ATOM      8  N   UNL     1      -1.937  -0.189  -0.475  1.00  0.00    -0.339 N 
ATOM      9  O   UNL     1      -0.637   0.797  -2.123  1.00  0.00    -0.269 OA
BRANCH   8  10
ATOM     10  C   UNL     1      -2.035  -0.796   0.858  1.00  0.00     0.116 C 
ATOM     11  C   UNL     1      -1.688   0.162   1.988  1.00  0.00     0.027 C 
ENDBRANCH   8  10
BRANCH   8  12
ATOM     12  C   UNL     1      -3.150   0.392  -1.052  1.00  0.00     0.116 C 
ATOM     13  C   UNL     1      -3.390   1.835  -0.637  1.00  0.00     0.027 C 
ENDBRANCH   8  12
ENDBRANCH   1   7
BRANCH   3  14
ATOM     14  O   UNL     1       3.782   0.476   0.804  1.00  0.00    -0.493 OA
ATOM     15  C   UNL     1       3.694   1.892   0.739  1.00  0.00     0.278 C 
ENDBRANCH   3  14
BRANCH   4  16
ATOM     16  O   UNL     1       4.064  -2.185   0.717  1.00  0.00    -0.504 OA
ATOM     17  H   UNL     1       4.051  -3.142   0.569  1.00  0.00     0.293 HD
ENDBRANCH   4  16
TORSDOF 5
