REMARK SMILES CCOc1ccc(Cc2nccc3cc(OCC)c(OCC)cc23)cc1OCC
REMARK SMILES IDX 8 1 7 2 4 3 26 4 5 5 25 6 6 7 3 8 2 9 1 10 27 11 28 12 29 13
REMARK SMILES IDX 9 14 10 15 24 16 11 17 23 18 13 19 12 20 19 21 14 22 15 23
REMARK SMILES IDX 20 24 21 25 22 26 16 27 17 28 18 29
REMARK H PARENT
ROOT
ATOM      1  C   UNL     1       0.324  -1.007  -1.586  1.00  0.00     0.092 C 
ENDROOT
BRANCH   1   2
ATOM      2  C   UNL     1       1.453  -0.804  -0.594  1.00  0.00    -0.038 A 
ATOM      3  C   UNL     1       3.580  -0.486   1.211  1.00  0.00     0.161 A 
ATOM      4  C   UNL     1       3.824  -1.080  -0.036  1.00  0.00     0.161 A 
ATOM      5  C   UNL     1       2.287  -0.106   1.575  1.00  0.00     0.051 A 
ATOM      6  C   UNL     1       2.756  -1.221  -0.932  1.00  0.00     0.054 A 
ATOM      7  C   UNL     1       1.230  -0.260   0.679  1.00  0.00     0.008 A 
BRANCH   3   8
ATOM      8  O   UNL     1       4.545  -0.306   2.172  1.00  0.00    -0.490 OA
BRANCH   8   9
ATOM      9  C   UNL     1       5.590   0.567   1.730  1.00  0.00     0.226 C 
ATOM     10  C   UNL     1       6.209   1.206   2.963  1.00  0.00     0.049 C 
ENDBRANCH   8   9
ENDBRANCH   3   8
BRANCH   4  11
ATOM     11  O   UNL     1       5.106  -1.492  -0.290  1.00  0.00    -0.490 OA
BRANCH  11  12
ATOM     12  C   UNL     1       5.322  -2.312  -1.436  1.00  0.00     0.226 C 
ATOM     13  C   UNL     1       6.765  -2.781  -1.410  1.00  0.00     0.049 C 
ENDBRANCH  11  12
ENDBRANCH   4  11
ENDBRANCH   1   2
BRANCH   1  14
ATOM     14  C   UNL     1      -0.494   0.232  -1.893  1.00  0.00     0.053 A 
ATOM     15  N   UNL     1       0.079   1.067  -2.803  1.00  0.00    -0.260 NA
ATOM     16  C   UNL     1      -1.748   0.498  -1.281  1.00  0.00     0.008 A 
ATOM     17  C   UNL     1      -0.576   2.197  -3.120  1.00  0.00     0.112 A 
ATOM     18  C   UNL     1      -2.394  -0.337  -0.333  1.00  0.00     0.061 A 
ATOM     19  C   UNL     1      -2.398   1.694  -1.652  1.00  0.00    -0.011 A 
ATOM     20  C   UNL     1      -1.796   2.549  -2.580  1.00  0.00     0.029 A 
ATOM     21  C   UNL     1      -3.633  -0.001   0.228  1.00  0.00     0.161 A 
ATOM     22  C   UNL     1      -3.645   2.025  -1.092  1.00  0.00     0.059 A 
ATOM     23  C   UNL     1      -4.269   1.188  -0.162  1.00  0.00     0.161 A 
BRANCH  21  24
ATOM     24  O   UNL     1      -4.299  -0.766   1.153  1.00  0.00    -0.490 OA
BRANCH  24  25
ATOM     25  C   UNL     1      -3.632  -1.907   1.686  1.00  0.00     0.226 C 
ATOM     26  C   UNL     1      -4.506  -2.492   2.779  1.00  0.00     0.049 C 
ENDBRANCH  24  25
ENDBRANCH  21  24
BRANCH  23  27
ATOM     27  O   UNL     1      -5.486   1.439   0.419  1.00  0.00    -0.490 OA
BRANCH  27  28
ATOM     28  C   UNL     1      -6.162   2.641   0.064  1.00  0.00     0.226 C 
ATOM     29  C   UNL     1      -7.486   2.672   0.805  1.00  0.00     0.049 C 
ENDBRANCH  27  28
ENDBRANCH  23  27
ENDBRANCH   1  14
TORSDOF 10
