REMARK SMILES C=C(CC)C(=O)c1ccc(OCC(=O)O)c(Cl)c1Cl
REMARK SMILES IDX 7 1 18 2 19 3 16 4 17 5 10 6 9 7 8 8 5 9 6 10 2 11 1 12 3 13
REMARK SMILES IDX 4 14 11 15 12 16 13 17 14 18 15 19
REMARK H PARENT 15 20
ROOT
ATOM      1  C   UNL     1       0.564   0.165  -0.746  1.00  0.00     0.043 A 
ATOM      2  C   UNL     1      -0.100   1.395  -0.682  1.00  0.00     0.074 A 
ATOM      3  Cl  UNL     1       0.785   2.877  -0.874  1.00  0.00    -0.082 Cl
ATOM      4  C   UNL     1      -1.492   1.405  -0.485  1.00  0.00     0.102 A 
ATOM      5  Cl  UNL     1      -2.361   2.910  -0.375  1.00  0.00    -0.079 Cl
ATOM      6  C   UNL     1      -2.212   0.193  -0.373  1.00  0.00     0.140 A 
ATOM      7  C   UNL     1      -1.529  -1.023  -0.469  1.00  0.00     0.049 A 
ATOM      8  C   UNL     1      -0.147  -1.038  -0.660  1.00  0.00     0.017 A 
ENDROOT
BRANCH   1   9
ATOM      9  C   UNL     1       2.018   0.058  -0.961  1.00  0.00     0.189 C 
ATOM     10  O   UNL     1       2.411  -0.398  -2.030  1.00  0.00    -0.289 OA
BRANCH   9  11
ATOM     11  C   UNL     1       2.969   0.457   0.130  1.00  0.00    -0.007 C 
ATOM     12  C   UNL     1       2.573   0.664   1.398  1.00  0.00     0.016 C 
BRANCH  11  13
ATOM     13  C   UNL     1       4.411   0.623  -0.286  1.00  0.00     0.035 C 
ATOM     14  C   UNL     1       5.162  -0.701  -0.318  1.00  0.00     0.009 C 
ENDBRANCH  11  13
ENDBRANCH   9  11
ENDBRANCH   1   9
BRANCH   6  15
ATOM     15  O   UNL     1      -3.565   0.298  -0.176  1.00  0.00    -0.480 OA
BRANCH  15  16
ATOM     16  C   UNL     1      -4.331  -0.896  -0.090  1.00  0.00     0.351 C 
BRANCH  16  17
ATOM     17  C   UNL     1      -5.799  -0.584   0.132  1.00  0.00     0.341 C 
ATOM     18  O   UNL     1      -6.737  -1.190  -0.363  1.00  0.00    -0.248 OA
BRANCH  17  19
ATOM     19  O   UNL     1      -6.021   0.415   1.009  1.00  0.00    -0.479 OA
ATOM     20  H   UNL     1      -6.995   0.507   1.040  1.00  0.00     0.296 HD
ENDBRANCH  17  19
ENDBRANCH  16  17
ENDBRANCH  15  16
ENDBRANCH   6  15
TORSDOF 7
