REMARK SMILES CCOc1ccc2nc3cc(N)ccc3c(N)c2c1
REMARK SMILES IDX 4 1 19 2 18 3 16 4 15 5 14 6 13 7 11 8 10 9 9 10 8 11 7 12
REMARK SMILES IDX 6 13 5 14 3 15 2 16 1 17 17 18 12 21
REMARK H PARENT 17 19 17 20 12 22 12 23
ROOT
ATOM      1  C   UNL     1      -2.637  -0.255  -0.220  1.00  0.00     0.120 A 
ATOM      2  C   UNL     1      -1.492  -0.391  -1.010  1.00  0.00     0.059 A 
ATOM      3  C   UNL     1      -0.186  -0.302  -0.465  1.00  0.00     0.027 A 
ATOM      4  C   UNL     1       1.013  -0.449  -1.210  1.00  0.00     0.051 A 
ATOM      5  C   UNL     1       2.263  -0.248  -0.573  1.00  0.00     0.024 A 
ATOM      6  C   UNL     1       3.500  -0.297  -1.253  1.00  0.00     0.014 A 
ATOM      7  C   UNL     1       4.704  -0.109  -0.573  1.00  0.00     0.026 A 
ATOM      8  C   UNL     1       4.704   0.084   0.804  1.00  0.00     0.034 A 
ATOM      9  C   UNL     1       3.475   0.187   1.461  1.00  0.00     0.054 A 
ATOM     10  C   UNL     1       2.260   0.005   0.808  1.00  0.00     0.075 A 
ATOM     11  N   UNL     1       1.130   0.091   1.525  1.00  0.00    -0.248 NA
ATOM     12  C   UNL     1      -0.054  -0.047   0.912  1.00  0.00     0.073 A 
ATOM     13  C   UNL     1      -1.200   0.087   1.683  1.00  0.00     0.033 A 
ATOM     14  C   UNL     1      -2.484  -0.014   1.136  1.00  0.00     0.048 A 
ENDROOT
BRANCH   1  15
ATOM     15  O   UNL     1      -3.814  -0.367  -0.901  1.00  0.00    -0.494 OA
BRANCH  15  16
ATOM     16  C   UNL     1      -5.039  -0.367  -0.168  1.00  0.00     0.226 C 
ATOM     17  C   UNL     1      -5.562   1.048   0.008  1.00  0.00     0.049 C 
ENDBRANCH  15  16
ENDBRANCH   1  15
BRANCH   4  18
ATOM     18  N   UNL     1       0.984  -0.579  -2.630  1.00  0.00    -0.398 N 
ATOM     19  H   UNL     1       0.156  -1.062  -2.963  1.00  0.00     0.156 HD
ATOM     20  H   UNL     1       1.038   0.344  -3.059  1.00  0.00     0.156 HD
ENDBRANCH   4  18
BRANCH   8  21
ATOM     21  N   UNL     1       5.895   0.389   1.474  1.00  0.00    -0.399 N 
ATOM     22  H   UNL     1       5.860   0.214   2.474  1.00  0.00     0.156 HD
ATOM     23  H   UNL     1       6.724  -0.007   1.042  1.00  0.00     0.156 HD
ENDBRANCH   8  21
TORSDOF 4
