REMARK SMILES CCOC(=O)C(c1c(O)c2ccccc2oc1=O)c1c(O)c2ccccc2oc1=O
REMARK SMILES IDX 4 1 5 2 3 3 2 4 1 5 6 6 7 7 8 8 17 9 10 10 16 11 18 12 11 13
REMARK SMILES IDX 15 14 12 15 14 16 13 17 9 18 19 20 20 21 29 22 22 23 28 24
REMARK SMILES IDX 30 25 23 26 27 27 24 28 26 29 25 30 21 31
REMARK H PARENT 9 19 21 32
ROOT
ATOM      1  C   UNL     1       0.472   1.955   0.561  1.00  0.00     0.318 C 
ATOM      2  O   UNL     1       1.070   2.155   1.612  1.00  0.00    -0.251 OA
ENDROOT
BRANCH   1   3
ATOM      3  O   UNL     1      -0.294   2.887  -0.080  1.00  0.00    -0.465 OA
BRANCH   3   4
ATOM      4  C   UNL     1      -0.438   4.123   0.629  1.00  0.00     0.229 C 
ATOM      5  C   UNL     1      -1.336   5.032  -0.186  1.00  0.00     0.049 C 
ENDBRANCH   3   4
ENDBRANCH   1   3
BRANCH   1   6
ATOM      6  C   UNL     1       0.510   0.650  -0.250  1.00  0.00     0.182 C 
BRANCH   6   7
ATOM      7  C   UNL     1      -0.866   0.062  -0.545  1.00  0.00     0.099 C 
ATOM      8  C   UNL     1      -1.962   0.149   0.232  1.00  0.00     0.138 C 
ATOM      9  C   UNL     1      -0.971  -0.589  -1.879  1.00  0.00     0.344 C 
ATOM     10  C   UNL     1      -3.264  -0.335  -0.222  1.00  0.00     0.060 A 
ATOM     11  O   UNL     1      -2.213  -1.052  -2.287  1.00  0.00    -0.422 OA
ATOM     12  O   UNL     1       0.008  -0.725  -2.606  1.00  0.00    -0.246 OA
ATOM     13  C   UNL     1      -4.433  -0.236   0.541  1.00  0.00     0.016 A 
ATOM     14  C   UNL     1      -3.350  -0.924  -1.477  1.00  0.00     0.142 A 
ATOM     15  C   UNL     1      -5.649  -0.721   0.047  1.00  0.00     0.001 A 
ATOM     16  C   UNL     1      -4.552  -1.413  -1.986  1.00  0.00     0.048 A 
ATOM     17  C   UNL     1      -5.708  -1.309  -1.216  1.00  0.00     0.004 A 
BRANCH   8  18
ATOM     18  O   UNL     1      -1.962   0.710   1.492  1.00  0.00    -0.507 OA
ATOM     19  H   UNL     1      -1.217   0.310   2.002  1.00  0.00     0.293 HD
ENDBRANCH   8  18
ENDBRANCH   6   7
BRANCH   6  20
ATOM     20  C   UNL     1       1.496  -0.332   0.369  1.00  0.00     0.099 C 
ATOM     21  C   UNL     1       2.669  -0.648  -0.208  1.00  0.00     0.138 C 
ATOM     22  C   UNL     1       1.170  -0.872   1.711  1.00  0.00     0.344 C 
ATOM     23  C   UNL     1       3.594  -1.603   0.408  1.00  0.00     0.060 A 
ATOM     24  O   UNL     1       2.115  -1.667   2.338  1.00  0.00    -0.422 OA
ATOM     25  O   UNL     1       0.104  -0.616   2.265  1.00  0.00    -0.246 OA
ATOM     26  C   UNL     1       4.746  -2.109  -0.210  1.00  0.00     0.016 A 
ATOM     27  C   UNL     1       3.293  -2.063   1.686  1.00  0.00     0.142 A 
ATOM     28  C   UNL     1       5.582  -3.010   0.463  1.00  0.00     0.001 A 
ATOM     29  C   UNL     1       4.116  -2.957   2.373  1.00  0.00     0.048 A 
ATOM     30  C   UNL     1       5.271  -3.427   1.757  1.00  0.00     0.004 A 
BRANCH  21  31
ATOM     31  O   UNL     1       3.048  -0.039  -1.388  1.00  0.00    -0.507 OA
ATOM     32  H   UNL     1       4.014  -0.069  -1.478  1.00  0.00     0.293 HD
ENDBRANCH  21  31
ENDBRANCH   6  20
ENDBRANCH   1   6
TORSDOF 7
