REMARK SMILES CCNCC(O)c1cccc(O)c1
REMARK SMILES IDX 4 1 3 2 2 4 1 5 5 6 6 7 7 9 13 10 8 11 11 12 9 13 10 14
REMARK SMILES IDX 12 15
REMARK H PARENT 3 3 6 8 12 16
ROOT
ATOM      1  C   UNL     1      -0.865   0.903  -0.032  1.00  0.00     0.117 C 
ENDROOT
BRANCH   1   2
ATOM      2  N   UNL     1      -2.262   1.034  -0.492  1.00  0.00    -0.314 NA
ATOM      3  H   UNL     1      -2.354   0.630  -1.423  1.00  0.00     0.122 HD
BRANCH   2   4
ATOM      4  C   UNL     1      -3.211   0.382   0.408  1.00  0.00     0.077 C 
ATOM      5  C   UNL     1      -4.630   0.713  -0.032  1.00  0.00     0.020 C 
ENDBRANCH   2   4
ENDBRANCH   1   2
BRANCH   1   6
ATOM      6  C   UNL     1      -0.218  -0.498  -0.205  1.00  0.00     0.158 C 
BRANCH   6   7
ATOM      7  O   UNL     1      -0.743  -1.425   0.748  1.00  0.00    -0.387 OA
ATOM      8  H   UNL     1      -0.041  -2.068   0.949  1.00  0.00     0.211 HD
ENDBRANCH   6   7
BRANCH   6   9
ATOM      9  C   UNL     1       1.292  -0.448  -0.069  1.00  0.00    -0.015 A 
ATOM     10  C   UNL     1       1.894  -0.121   1.157  1.00  0.00     0.052 A 
ATOM     11  C   UNL     1       2.115  -0.730  -1.170  1.00  0.00     0.007 A 
ATOM     12  C   UNL     1       3.280  -0.080   1.268  1.00  0.00     0.115 A 
ATOM     13  C   UNL     1       3.506  -0.685  -1.047  1.00  0.00     0.004 A 
ATOM     14  C   UNL     1       4.092  -0.359   0.175  1.00  0.00     0.046 A 
BRANCH  12  15
ATOM     15  O   UNL     1       3.808   0.242   2.483  1.00  0.00    -0.508 OA
ATOM     16  H   UNL     1       4.776   0.251   2.408  1.00  0.00     0.293 HD
ENDBRANCH  12  15
ENDBRANCH   6   9
ENDBRANCH   1   6
TORSDOF 6
