REMARK SMILES CCNCC(O)c1cccc(OC(=O)C(C)(C)C)c1
REMARK SMILES IDX 7 1 19 2 11 3 10 4 9 5 8 6 5 7 4 8 3 9 2 11 1 12 6 13 12 15
REMARK SMILES IDX 13 16 14 17 15 18 16 19 17 20 18 21
REMARK H PARENT 3 10 6 14
ROOT
ATOM      1  C   UNL     1      -0.836  -1.638  -1.068  1.00  0.00    -0.015 A 
ATOM      2  C   UNL     1       0.271  -1.179  -0.340  1.00  0.00     0.053 A 
ATOM      3  C   UNL     1       1.493  -0.989  -0.984  1.00  0.00     0.131 A 
ATOM      4  C   UNL     1       1.654  -1.277  -2.336  1.00  0.00     0.047 A 
ATOM      5  C   UNL     1       0.559  -1.734  -3.066  1.00  0.00     0.004 A 
ATOM      6  C   UNL     1      -0.679  -1.908  -2.438  1.00  0.00     0.007 A 
ENDROOT
BRANCH   1   7
ATOM      7  C   UNL     1      -2.189  -1.800  -0.413  1.00  0.00     0.158 C 
BRANCH   7   8
ATOM      8  C   UNL     1      -2.968  -0.464  -0.363  1.00  0.00     0.117 C 
BRANCH   8   9
ATOM      9  N   UNL     1      -4.241  -0.653   0.367  1.00  0.00    -0.314 NA
ATOM     10  H   UNL     1      -4.835  -1.294  -0.163  1.00  0.00     0.122 HD
BRANCH   9  11
ATOM     11  C   UNL     1      -4.939   0.625   0.519  1.00  0.00     0.077 C 
ATOM     12  C   UNL     1      -6.264   0.406   1.233  1.00  0.00     0.020 C 
ENDBRANCH   9  11
ENDBRANCH   8   9
ENDBRANCH   7   8
BRANCH   7  13
ATOM     13  O   UNL     1      -2.038  -2.301   0.921  1.00  0.00    -0.387 OA
ATOM     14  H   UNL     1      -2.855  -2.011   1.377  1.00  0.00     0.211 HD
ENDBRANCH   7  13
ENDBRANCH   1   7
BRANCH   3  15
ATOM     15  O   UNL     1       2.601  -0.571  -0.248  1.00  0.00    -0.426 OA
BRANCH  15  16
ATOM     16  C   UNL     1       2.664   0.810  -0.076  1.00  0.00     0.316 C 
ATOM     17  O   UNL     1       1.870   1.628  -0.527  1.00  0.00    -0.251 OA
BRANCH  16  18
ATOM     18  C   UNL     1       3.889   1.168   0.775  1.00  0.00     0.060 C 
ATOM     19  C   UNL     1       5.163   0.649   0.093  1.00  0.00     0.023 C 
ATOM     20  C   UNL     1       3.736   0.547   2.170  1.00  0.00     0.023 C 
ATOM     21  C   UNL     1       3.986   2.696   0.913  1.00  0.00     0.023 C 
ENDBRANCH  16  18
ENDBRANCH  15  16
ENDBRANCH   3  15
TORSDOF 8
