REMARK SMILES Cn1c(=O)c2c(ncn2CCO)n(C)c1=O
REMARK SMILES IDX 10 1 9 2 13 3 6 4 15 5 5 6 7 7 2 8 16 9 3 10 8 11 4 12 14 13
REMARK SMILES IDX 1 14 11 15 12 16
REMARK H PARENT 12 17
ROOT
ATOM      1  C   UNL     1       2.665  -0.409   0.889  1.00  0.00     0.152 C 
ENDROOT
BRANCH   1   2
ATOM      2  N   UNL     1       1.456  -0.919   0.275  1.00  0.00    -0.322 N 
ATOM      3  N   UNL     1      -1.899  -0.926  -0.669  1.00  0.00    -0.279 N 
ATOM      4  C   UNL     1      -0.577  -1.200  -0.416  1.00  0.00     0.167 A 
ATOM      5  C   UNL     1      -2.427   0.306  -0.283  1.00  0.00     0.332 C 
ATOM      6  C   UNL     1       0.237  -0.304   0.207  1.00  0.00     0.152 A 
ATOM      7  N   UNL     1       0.081  -2.350  -0.734  1.00  0.00    -0.218 NA
ATOM      8  N   UNL     1      -1.554   1.208   0.363  1.00  0.00    -0.261 N 
ATOM      9  O   UNL     1      -3.606   0.606  -0.492  1.00  0.00    -0.247 OA
ATOM     10  C   UNL     1      -0.204   0.978   0.636  1.00  0.00     0.282 C 
ATOM     11  C   UNL     1       1.312  -2.153  -0.306  1.00  0.00     0.202 A 
ATOM     12  O   UNL     1       0.545   1.785   1.183  1.00  0.00    -0.267 OA
ATOM     13  C   UNL     1      -2.729  -1.907  -1.343  1.00  0.00     0.157 C 
ATOM     14  C   UNL     1      -2.123   2.485   0.747  1.00  0.00     0.159 C 
ENDBRANCH   1   2
BRANCH   1  15
ATOM     15  C   UNL     1       3.483   0.480  -0.046  1.00  0.00     0.178 C 
BRANCH  15  16
ATOM     16  O   UNL     1       2.815   1.684  -0.405  1.00  0.00    -0.395 OA
ATOM     17  H   UNL     1       2.276   1.993   0.353  1.00  0.00     0.210 HD
ENDBRANCH  15  16
ENDBRANCH   1  15
TORSDOF 3
