REMARK SMILES Cc1cc(C#N)cc(C)c1Oc1nc(Nc2ccc(C#N)cc2)nc(N)c1Br
REMARK SMILES IDX 12 1 13 2 14 3 24 4 25 5 27 6 28 7 11 8 10 9 2 10 3 11 4 12
REMARK SMILES IDX 8 13 7 14 5 15 6 16 1 17 9 18 15 19 16 21 17 22 23 23 18 24
REMARK SMILES IDX 22 25 19 26 20 27 21 28 26 29
REMARK H PARENT 15 20 26 30 26 31
ROOT
ATOM      1  C   UNL     1       1.048   1.169  -1.149  1.00  0.00     0.240 A 
ATOM      2  N   UNL     1       0.349   0.404  -0.284  1.00  0.00    -0.176 NA
ATOM      3  C   UNL     1      -0.984   0.473  -0.346  1.00  0.00     0.232 A 
ATOM      4  N   UNL     1      -1.634   1.256  -1.216  1.00  0.00    -0.194 NA
ATOM      5  C   UNL     1      -0.923   2.009  -2.069  1.00  0.00     0.147 A 
ATOM      6  C   UNL     1       0.460   2.002  -2.076  1.00  0.00     0.122 A 
ATOM      7  Br  UNL     1       1.464   3.064  -3.278  1.00  0.00    -0.041 Br
ENDROOT
BRANCH   1   8
ATOM      8  O   UNL     1       2.442   1.127  -1.117  1.00  0.00    -0.437 OA
BRANCH   8   9
ATOM      9  C   UNL     1       3.013   0.289  -0.184  1.00  0.00     0.135 A 
ATOM     10  C   UNL     1       3.324  -1.033  -0.548  1.00  0.00    -0.007 A 
ATOM     11  C   UNL     1       3.909  -1.874   0.410  1.00  0.00     0.026 A 
ATOM     12  C   UNL     1       4.207  -1.395   1.691  1.00  0.00     0.053 A 
ATOM     13  C   UNL     1       3.342   0.797   1.085  1.00  0.00    -0.007 A 
ATOM     14  C   UNL     1       3.927  -0.065   2.023  1.00  0.00     0.026 A 
ATOM     15  C   UNL     1       4.802  -2.267   2.662  1.00  0.00     0.099 C 
ATOM     16  N   UNL     1       5.280  -2.974   3.448  1.00  0.00    -0.192 NA
ATOM     17  C   UNL     1       2.998  -1.567  -1.913  1.00  0.00     0.048 C 
ATOM     18  C   UNL     1       3.035   2.218   1.464  1.00  0.00     0.048 C 
ENDBRANCH   8   9
ENDBRANCH   1   8
BRANCH   3  19
ATOM     19  N   UNL     1      -1.654  -0.335   0.567  1.00  0.00    -0.324 N 
ATOM     20  H   UNL     1      -0.975  -0.837   1.122  1.00  0.00     0.170 HD
BRANCH  19  21
ATOM     21  C   UNL     1      -3.004  -0.571   0.846  1.00  0.00     0.041 A 
ATOM     22  C   UNL     1      -4.061   0.045   0.167  1.00  0.00     0.027 A 
ATOM     23  C   UNL     1      -3.328  -1.479   1.868  1.00  0.00     0.027 A 
ATOM     24  C   UNL     1      -5.396  -0.232   0.493  1.00  0.00     0.021 A 
ATOM     25  C   UNL     1      -4.659  -1.762   2.200  1.00  0.00     0.021 A 
ATOM     26  C   UNL     1      -5.698  -1.137   1.510  1.00  0.00     0.052 A 
ATOM     27  C   UNL     1      -7.063  -1.422   1.844  1.00  0.00     0.099 C 
ATOM     28  N   UNL     1      -8.166  -1.656   2.118  1.00  0.00    -0.192 NA
ENDBRANCH  19  21
ENDBRANCH   3  19
BRANCH   5  29
ATOM     29  N   UNL     1      -1.669   2.806  -2.954  1.00  0.00    -0.382 N 
ATOM     30  H   UNL     1      -1.430   2.565  -3.913  1.00  0.00     0.158 HD
ATOM     31  H   UNL     1      -1.418   3.784  -2.826  1.00  0.00     0.158 HD
ENDBRANCH   5  29
TORSDOF 5
