REMARK SMILES Nc1ccncc1
REMARK SMILES IDX 1 1 2 4 3 5 7 6 4 7 6 8 5 9
REMARK H PARENT 1 2 1 3
ROOT
ATOM      1  N   UNL     1       1.993  -0.565  -0.352  1.00  0.00    -0.399 N 
ATOM      2  H   UNL     1       2.675   0.180  -0.244  1.00  0.00     0.156 HD
ATOM      3  H   UNL     1       2.284  -1.421   0.110  1.00  0.00     0.156 HD
ENDROOT
BRANCH   1   4
ATOM      4  C   UNL     1       0.677  -0.180  -0.067  1.00  0.00     0.034 A 
ATOM      5  C   UNL     1      -0.292  -1.138   0.219  1.00  0.00     0.045 A 
ATOM      6  C   UNL     1       0.263   1.131  -0.283  1.00  0.00     0.045 A 
ATOM      7  C   UNL     1      -1.608  -0.730   0.378  1.00  0.00     0.113 A 
ATOM      8  C   UNL     1      -1.076   1.447  -0.104  1.00  0.00     0.113 A 
ATOM      9  N   UNL     1      -2.021   0.546   0.237  1.00  0.00    -0.265 NA
ENDBRANCH   1   4
TORSDOF 1
