REMARK SMILES CCN(CC)CC(CN(CC)CC)C(c1ccccc1)C1CCCCC1
REMARK SMILES IDX 7 1 6 2 3 3 2 4 1 5 4 6 5 7 8 8 9 9 10 10 11 11 12 12 13 13
REMARK SMILES IDX 14 14 21 15 22 16 26 17 23 18 25 19 24 20 15 21 16 22 20 23
REMARK SMILES IDX 17 24 19 25 18 26
REMARK H PARENT
ROOT
ATOM      1  C   UNL     1      -0.081  -0.278  -0.130  1.00  0.00     0.025 C 
ENDROOT
BRANCH   1   2
ATOM      2  C   UNL     1      -0.788  -1.329  -1.033  1.00  0.00     0.090 C 
BRANCH   2   3
ATOM      3  N   UNL     1      -1.988  -1.919  -0.400  1.00  0.00    -0.304 NA
BRANCH   3   4
ATOM      4  C   UNL     1      -1.757  -3.290   0.083  1.00  0.00     0.081 C 
ATOM      5  C   UNL     1      -0.690  -3.387   1.170  1.00  0.00     0.021 C 
ENDBRANCH   3   4
BRANCH   3   6
ATOM      6  C   UNL     1      -3.134  -1.841  -1.324  1.00  0.00     0.081 C 
ATOM      7  C   UNL     1      -4.475  -2.161  -0.672  1.00  0.00     0.021 C 
ENDBRANCH   3   6
ENDBRANCH   2   3
ENDBRANCH   1   2
BRANCH   1   8
ATOM      8  C   UNL     1      -0.805   1.101  -0.144  1.00  0.00     0.090 C 
BRANCH   8   9
ATOM      9  N   UNL     1      -2.166   1.153   0.426  1.00  0.00    -0.304 NA
BRANCH   9  10
ATOM     10  C   UNL     1      -2.166   0.938   1.880  1.00  0.00     0.081 C 
ATOM     11  C   UNL     1      -3.558   0.885   2.504  1.00  0.00     0.021 C 
ENDBRANCH   9  10
BRANCH   9  12
ATOM     12  C   UNL     1      -2.894   2.353  -0.014  1.00  0.00     0.081 C 
ATOM     13  C   UNL     1      -2.367   3.689   0.502  1.00  0.00     0.021 C 
ENDBRANCH   9  12
ENDBRANCH   8   9
ENDBRANCH   1   8
BRANCH   1  14
ATOM     14  C   UNL     1       1.449  -0.165  -0.507  1.00  0.00     0.028 C 
BRANCH  14  15
ATOM     15  C   UNL     1       2.310   0.677   0.507  1.00  0.00    -0.003 C 
ATOM     16  C   UNL     1       3.831   0.601   0.198  1.00  0.00     0.004 C 
ATOM     17  C   UNL     1       2.026   0.280   1.976  1.00  0.00     0.004 C 
ATOM     18  C   UNL     1       4.558  -0.415   1.072  1.00  0.00     0.000 C 
ATOM     19  C   UNL     1       3.165   0.674   2.908  1.00  0.00     0.000 C 
ATOM     20  C   UNL     1       4.457  -0.060   2.554  1.00  0.00     0.000 C 
ENDBRANCH  14  15
BRANCH  14  21
ATOM     21  C   UNL     1       1.668   0.258  -1.963  1.00  0.00    -0.044 A 
ATOM     22  C   UNL     1       1.956  -0.720  -2.931  1.00  0.00     0.004 A 
ATOM     23  C   UNL     1       1.605   1.598  -2.375  1.00  0.00     0.004 A 
ATOM     24  C   UNL     1       2.161  -0.370  -4.267  1.00  0.00     0.000 A 
ATOM     25  C   UNL     1       1.810   1.947  -3.712  1.00  0.00     0.000 A 
ATOM     26  C   UNL     1       2.086   0.963  -4.658  1.00  0.00     0.000 A 
ENDBRANCH  14  21
ENDBRANCH   1  14
TORSDOF 11
