REMARK SMILES CCC(O)c1ccc(OCCNC(C)Cc2ccccc2)cc1
REMARK SMILES IDX 10 1 9 2 8 3 5 4 6 5 23 6 7 7 22 8 3 9 2 10 1 11 4 12 11 14
REMARK SMILES IDX 12 15 13 17 14 18 15 19 16 20 17 21 21 22 18 23 20 24 19 25
REMARK H PARENT 4 13 12 16
ROOT
ATOM      1  C   UNL     1      -0.195  -0.215   0.810  1.00  0.00     0.245 C 
ENDROOT
BRANCH   1   2
ATOM      2  O   UNL     1      -1.080   0.816   0.365  1.00  0.00    -0.492 OA
BRANCH   2   3
ATOM      3  C   UNL     1      -2.418   0.614   0.566  1.00  0.00     0.119 A 
ATOM      4  C   UNL     1      -5.221   0.458   0.865  1.00  0.00    -0.019 A 
ATOM      5  C   UNL     1      -4.396  -0.610   1.246  1.00  0.00     0.010 A 
ATOM      6  C   UNL     1      -4.620   1.606   0.332  1.00  0.00     0.010 A 
ATOM      7  C   UNL     1      -3.005  -0.533   1.098  1.00  0.00     0.047 A 
ATOM      8  C   UNL     1      -3.233   1.680   0.184  1.00  0.00     0.047 A 
BRANCH   4   9
ATOM      9  C   UNL     1      -6.723   0.353   1.006  1.00  0.00     0.144 C 
BRANCH   9  10
ATOM     10  C   UNL     1      -7.454   0.210  -0.336  1.00  0.00     0.033 C 
ATOM     11  C   UNL     1      -7.137  -1.088  -1.064  1.00  0.00     0.007 C 
ENDBRANCH   9  10
BRANCH   9  12
ATOM     12  O   UNL     1      -7.193   1.533   1.662  1.00  0.00    -0.388 OA
ATOM     13  H   UNL     1      -8.145   1.416   1.815  1.00  0.00     0.211 HD
ENDBRANCH   9  12
ENDBRANCH   4   9
ENDBRANCH   2   3
ENDBRANCH   1   2
BRANCH   1  14
ATOM     14  C   UNL     1       1.245   0.232   0.512  1.00  0.00     0.122 C 
BRANCH  14  15
ATOM     15  N   UNL     1       2.216  -0.759   0.990  1.00  0.00    -0.311 NA
ATOM     16  H   UNL     1       2.111  -0.865   2.000  1.00  0.00     0.123 HD
BRANCH  15  17
ATOM     17  C   UNL     1       3.630  -0.442   0.696  1.00  0.00     0.055 C 
ATOM     18  C   UNL     1       4.095   0.816   1.440  1.00  0.00     0.024 C 
BRANCH  17  19
ATOM     19  C   UNL     1       3.924  -0.373  -0.821  1.00  0.00     0.054 C 
BRANCH  19  20
ATOM     20  C   UNL     1       5.400  -0.414  -1.153  1.00  0.00    -0.046 A 
ATOM     21  C   UNL     1       6.079   0.752  -1.532  1.00  0.00     0.004 A 
ATOM     22  C   UNL     1       6.109  -1.620  -1.079  1.00  0.00     0.004 A 
ATOM     23  C   UNL     1       7.442   0.711  -1.828  1.00  0.00     0.000 A 
ATOM     24  C   UNL     1       7.472  -1.659  -1.377  1.00  0.00     0.000 A 
ATOM     25  C   UNL     1       8.138  -0.494  -1.751  1.00  0.00     0.000 A 
ENDBRANCH  19  20
ENDBRANCH  17  19
ENDBRANCH  15  17
ENDBRANCH  14  15
ENDBRANCH   1  14
TORSDOF 10
