REMARK SMILES Nc1ccc(C(=O)Oc2ccccc2)c(O)c1
REMARK SMILES IDX 2 1 17 2 15 3 5 4 4 5 3 6 1 7 16 10 6 12 7 13 8 14 9 15
REMARK SMILES IDX 10 16 14 17 11 18 13 19 12 20
REMARK H PARENT 1 8 1 9 16 11
ROOT
ATOM      1  C   UNL     1      -3.943   0.319   0.187  1.00  0.00     0.035 A 
ATOM      2  C   UNL     1      -3.354   0.875  -0.955  1.00  0.00     0.072 A 
ATOM      3  C   UNL     1      -1.965   0.982  -1.056  1.00  0.00     0.132 A 
ATOM      4  C   UNL     1      -1.152   0.571   0.001  1.00  0.00     0.102 A 
ATOM      5  C   UNL     1      -1.735   0.070   1.171  1.00  0.00     0.022 A 
ATOM      6  C   UNL     1      -3.125  -0.034   1.265  1.00  0.00     0.026 A 
ENDROOT
BRANCH   1   7
ATOM      7  N   UNL     1      -5.334   0.323   0.335  1.00  0.00    -0.399 N 
ATOM      8  H   UNL     1      -5.682  -0.341   1.020  1.00  0.00     0.156 HD
ATOM      9  H   UNL     1      -5.850   0.278  -0.538  1.00  0.00     0.156 HD
ENDBRANCH   1   7
BRANCH   3  10
ATOM     10  O   UNL     1      -1.405   1.471  -2.202  1.00  0.00    -0.507 OA
ATOM     11  H   UNL     1      -2.093   1.879  -2.752  1.00  0.00     0.293 HD
ENDBRANCH   3  10
BRANCH   4  12
ATOM     12  C   UNL     1       0.315   0.709  -0.072  1.00  0.00     0.347 C 
ATOM     13  O   UNL     1       0.905   1.759  -0.262  1.00  0.00    -0.246 OA
BRANCH  12  14
ATOM     14  O   UNL     1       0.844  -0.553   0.135  1.00  0.00    -0.423 OA
BRANCH  14  15
ATOM     15  C   UNL     1       2.242  -0.626   0.122  1.00  0.00     0.131 A 
ATOM     16  C   UNL     1       3.010   0.031   1.082  1.00  0.00     0.047 A 
ATOM     17  C   UNL     1       2.833  -1.456  -0.829  1.00  0.00     0.047 A 
ATOM     18  C   UNL     1       4.396  -0.119   1.065  1.00  0.00     0.004 A 
ATOM     19  C   UNL     1       4.220  -1.603  -0.840  1.00  0.00     0.004 A 
ATOM     20  C   UNL     1       5.000  -0.934   0.105  1.00  0.00     0.000 A 
ENDBRANCH  14  15
ENDBRANCH  12  14
ENDBRANCH   4  12
TORSDOF 5
