REMARK SMILES CCNC1C2CCC(C2)C1c1ccccc1
REMARK SMILES IDX 3 1 2 3 1 4 4 5 5 6 10 7 6 8 9 9 8 10 7 11 11 12 12 13 16 14
REMARK SMILES IDX 13 15 15 16 14 17
REMARK H PARENT 3 2
ROOT
ATOM      1  N   UNL     1      -1.687  -0.597   0.226  1.00  0.00    -0.313 NA
ATOM      2  H   UNL     1      -2.683  -0.382   0.243  1.00  0.00     0.122 HD
ENDROOT
BRANCH   1   3
ATOM      3  C   UNL     1      -1.470  -1.845   0.962  1.00  0.00     0.078 C 
ATOM      4  C   UNL     1      -2.201  -2.980   0.261  1.00  0.00     0.020 C 
ENDBRANCH   1   3
BRANCH   1   5
ATOM      5  C   UNL     1      -0.929   0.518   0.807  1.00  0.00     0.064 C 
ATOM      6  C   UNL     1      -1.526   1.870   0.313  1.00  0.00     0.007 C 
ATOM      7  C   UNL     1       0.581   0.672   0.384  1.00  0.00     0.039 C 
ATOM      8  C   UNL     1      -0.951   3.026   1.158  1.00  0.00     0.005 C 
ATOM      9  C   UNL     1      -0.815   2.085  -1.021  1.00  0.00     0.009 C 
ATOM     10  C   UNL     1       0.581   2.021  -0.396  1.00  0.00    -0.002 C 
ATOM     11  C   UNL     1       0.485   3.163   0.634  1.00  0.00     0.004 C 
BRANCH   7  12
ATOM     12  C   UNL     1       1.310  -0.427  -0.372  1.00  0.00    -0.043 A 
ATOM     13  C   UNL     1       2.536  -0.900   0.129  1.00  0.00     0.004 A 
ATOM     14  C   UNL     1       0.840  -0.975  -1.574  1.00  0.00     0.004 A 
ATOM     15  C   UNL     1       3.257  -1.891  -0.541  1.00  0.00     0.000 A 
ATOM     16  C   UNL     1       1.559  -1.968  -2.244  1.00  0.00     0.000 A 
ATOM     17  C   UNL     1       2.768  -2.426  -1.728  1.00  0.00     0.000 A 
ENDBRANCH   7  12
ENDBRANCH   1   5
TORSDOF 3
