REMARK SMILES O=C(O)Cc1ccccc1Oc1ccc(Cl)cc1Cl
REMARK SMILES IDX 5 1 10 2 9 3 8 4 7 5 6 6 4 7 2 8 1 9 3 10 11 12 12 13 18 14
REMARK SMILES IDX 13 15 17 16 14 17 15 18 19 19 16 20
REMARK H PARENT 3 11
ROOT
ATOM      1  C   UNL     1      -1.625  -0.128  -1.011  1.00  0.00     0.006 A 
ATOM      2  C   UNL     1      -0.735   0.397  -0.060  1.00  0.00     0.131 A 
ATOM      3  C   UNL     1      -0.649   1.778   0.151  1.00  0.00     0.047 A 
ATOM      4  C   UNL     1      -1.423   2.648  -0.616  1.00  0.00     0.004 A 
ATOM      5  C   UNL     1      -2.293   2.140  -1.579  1.00  0.00     0.001 A 
ATOM      6  C   UNL     1      -2.397   0.762  -1.773  1.00  0.00     0.008 A 
ENDROOT
BRANCH   1   7
ATOM      7  C   UNL     1      -1.755  -1.618  -1.223  1.00  0.00     0.161 C 
BRANCH   7   8
ATOM      8  C   UNL     1      -2.343  -2.366  -0.055  1.00  0.00     0.307 C 
ATOM      9  O   UNL     1      -1.949  -3.442   0.371  1.00  0.00    -0.252 OA
BRANCH   8  10
ATOM     10  O   UNL     1      -3.440  -1.791   0.475  1.00  0.00    -0.481 OA
ATOM     11  H   UNL     1      -3.686  -2.384   1.215  1.00  0.00     0.296 HD
ENDBRANCH   8  10
ENDBRANCH   7   8
ENDBRANCH   1   7
BRANCH   2  12
ATOM     12  O   UNL     1      -0.007  -0.490   0.704  1.00  0.00    -0.456 OA
BRANCH  12  13
ATOM     13  C   UNL     1       1.348  -0.263   0.809  1.00  0.00     0.146 A 
ATOM     14  C   UNL     1       1.944  -0.294   2.076  1.00  0.00     0.085 A 
ATOM     15  C   UNL     1       2.142  -0.083  -0.331  1.00  0.00     0.050 A 
ATOM     16  C   UNL     1       3.321  -0.110   2.210  1.00  0.00     0.045 A 
ATOM     17  C   UNL     1       3.519   0.101  -0.196  1.00  0.00     0.024 A 
ATOM     18  C   UNL     1       4.100   0.089   1.072  1.00  0.00     0.042 A 
ATOM     19  Cl  UNL     1       1.003  -0.538   3.503  1.00  0.00    -0.080 Cl
ATOM     20  Cl  UNL     1       5.798   0.317   1.231  1.00  0.00    -0.084 Cl
ENDBRANCH  12  13
ENDBRANCH   2  12
TORSDOF 5
