REMARK SMILES CCNC(C)Cc1cccc(C(F)(F)F)c1
REMARK SMILES IDX 4 1 5 2 3 3 2 5 1 6 6 7 7 8 16 9 8 10 11 11 9 12 10 13 12 14
REMARK SMILES IDX 13 15 14 16 15 17
REMARK H PARENT 3 4
ROOT
ATOM      1  C   UNL     1      -1.488   0.434  -0.589  1.00  0.00     0.054 C 
ATOM      2  C   UNL     1      -1.284   1.090   0.781  1.00  0.00     0.024 C 
ENDROOT
BRANCH   1   3
ATOM      3  N   UNL     1      -1.928  -0.970  -0.502  1.00  0.00    -0.314 NA
ATOM      4  H   UNL     1      -2.029  -1.347  -1.445  1.00  0.00     0.122 HD
BRANCH   3   5
ATOM      5  C   UNL     1      -3.165  -1.208   0.240  1.00  0.00     0.078 C 
ATOM      6  C   UNL     1      -4.401  -0.604  -0.411  1.00  0.00     0.020 C 
ENDBRANCH   3   5
ENDBRANCH   1   3
BRANCH   1   7
ATOM      7  C   UNL     1      -0.213   0.557  -1.468  1.00  0.00     0.054 C 
BRANCH   7   8
ATOM      8  C   UNL     1       1.078   0.043  -0.869  1.00  0.00    -0.046 A 
ATOM      9  C   UNL     1       2.054   0.941  -0.408  1.00  0.00     0.016 A 
ATOM     10  C   UNL     1       1.326  -1.331  -0.766  1.00  0.00     0.004 A 
ATOM     11  C   UNL     1       3.261   0.480   0.144  1.00  0.00     0.056 A 
ATOM     12  C   UNL     1       2.516  -1.801  -0.211  1.00  0.00     0.001 A 
ATOM     13  C   UNL     1       3.479  -0.901   0.245  1.00  0.00     0.013 A 
BRANCH  11  14
ATOM     14  C   UNL     1       4.287   1.458   0.659  1.00  0.00     0.416 C 
ATOM     15  F   UNL     1       5.561   0.976   0.613  1.00  0.00    -0.166 F 
ATOM     16  F   UNL     1       4.068   1.808   1.956  1.00  0.00    -0.166 F 
ATOM     17  F   UNL     1       4.311   2.627  -0.043  1.00  0.00    -0.166 F 
ENDBRANCH  11  14
ENDBRANCH   7   8
ENDBRANCH   1   7
TORSDOF 5
