REMARK SMILES c1ccc(C(CCN2CCCCC2)c2ccccc2)cc1
REMARK SMILES IDX 6 1 7 2 8 3 9 4 13 5 10 6 12 7 11 8 5 9 4 10 3 11 20 12 2 13
REMARK SMILES IDX 21 14 1 15 14 16 15 17 19 18 16 19 18 20 17 21
REMARK H PARENT
ROOT
ATOM      1  C   UNL     1       0.089   0.003  -0.863  1.00  0.00     0.028 C 
ENDROOT
BRANCH   1   2
ATOM      2  C   UNL     1       0.775   0.355   0.471  1.00  0.00     0.085 C 
BRANCH   2   3
ATOM      3  N   UNL     1       2.244   0.256   0.496  1.00  0.00    -0.303 NA
ATOM      4  C   UNL     1       2.734  -1.121   0.389  1.00  0.00     0.084 C 
ATOM      5  C   UNL     1       2.898   1.146  -0.470  1.00  0.00     0.084 C 
ATOM      6  C   UNL     1       4.245  -1.180   0.629  1.00  0.00     0.016 C 
ATOM      7  C   UNL     1       4.413   1.159  -0.256  1.00  0.00     0.016 C 
ATOM      8  C   UNL     1       4.994  -0.249  -0.319  1.00  0.00     0.003 C 
ENDBRANCH   2   3
ENDBRANCH   1   2
BRANCH   1   9
ATOM      9  C   UNL     1      -1.462  -0.073  -0.814  1.00  0.00     0.050 C 
BRANCH   9  10
ATOM     10  C   UNL     1      -2.059   1.237  -0.298  1.00  0.00    -0.040 A 
ATOM     11  C   UNL     1      -2.282   2.298  -1.192  1.00  0.00     0.004 A 
ATOM     12  C   UNL     1      -2.366   1.430   1.059  1.00  0.00     0.004 A 
ATOM     13  C   UNL     1      -2.807   3.511  -0.743  1.00  0.00     0.000 A 
ATOM     14  C   UNL     1      -2.891   2.644   1.506  1.00  0.00     0.000 A 
ATOM     15  C   UNL     1      -3.112   3.683   0.605  1.00  0.00     0.000 A 
ENDBRANCH   9  10
BRANCH   9  16
ATOM     16  C   UNL     1      -2.085  -1.336  -0.207  1.00  0.00    -0.040 A 
ATOM     17  C   UNL     1      -3.482  -1.503  -0.281  1.00  0.00     0.004 A 
ATOM     18  C   UNL     1      -1.337  -2.366   0.382  1.00  0.00     0.004 A 
ATOM     19  C   UNL     1      -4.107  -2.639   0.237  1.00  0.00     0.000 A 
ATOM     20  C   UNL     1      -1.963  -3.504   0.901  1.00  0.00     0.000 A 
ATOM     21  C   UNL     1      -3.346  -3.640   0.831  1.00  0.00     0.000 A 
ENDBRANCH   9  16
ENDBRANCH   1   9
TORSDOF 5
