REMARK SMILES O=C(O)Cc1sc(-c2ccccc2)nc1-c1ccc(Cl)cc1
REMARK SMILES IDX 4 1 2 2 1 3 3 4 5 6 15 7 6 8 14 9 7 10 16 11 17 12 22 13
REMARK SMILES IDX 18 14 21 15 19 16 20 17 8 18 9 19 13 20 10 21 12 22 11 23
REMARK H PARENT 3 5
ROOT
ATOM      1  C   UNL     1      -1.713   1.888   1.579  1.00  0.00     0.171 C 
ENDROOT
BRANCH   1   2
ATOM      2  C   UNL     1      -2.152   3.026   0.690  1.00  0.00     0.308 C 
ATOM      3  O   UNL     1      -1.852   3.243  -0.471  1.00  0.00    -0.252 OA
BRANCH   2   4
ATOM      4  O   UNL     1      -3.008   3.855   1.328  1.00  0.00    -0.481 OA
ATOM      5  H   UNL     1      -3.222   4.538   0.657  1.00  0.00     0.296 HD
ENDBRANCH   2   4
ENDBRANCH   1   2
BRANCH   1   6
ATOM      6  C   UNL     1      -0.615   1.092   0.945  1.00  0.00     0.044 A 
ATOM      7  C   UNL     1      -0.661  -0.048   0.163  1.00  0.00     0.086 A 
ATOM      8  S   UNL     1       1.027   1.536   1.187  1.00  0.00    -0.118 S 
ATOM      9  N   UNL     1       0.566  -0.578  -0.185  1.00  0.00    -0.236 NA
ATOM     10  C   UNL     1       1.551   0.174   0.269  1.00  0.00     0.124 A 
BRANCH   7  11
ATOM     11  C   UNL     1      -1.883  -0.719  -0.242  1.00  0.00     0.001 A 
ATOM     12  C   UNL     1      -2.133  -2.023   0.201  1.00  0.00     0.012 A 
ATOM     13  C   UNL     1      -2.801  -0.091  -1.094  1.00  0.00     0.012 A 
ATOM     14  C   UNL     1      -3.304  -2.684  -0.179  1.00  0.00     0.021 A 
ATOM     15  C   UNL     1      -3.972  -0.752  -1.474  1.00  0.00     0.021 A 
ATOM     16  C   UNL     1      -4.220  -2.043  -1.012  1.00  0.00     0.041 A 
ATOM     17  Cl  UNL     1      -5.662  -2.856  -1.480  1.00  0.00    -0.084 Cl
ENDBRANCH   7  11
BRANCH  10  18
ATOM     18  C   UNL     1       2.982  -0.117   0.032  1.00  0.00     0.010 A 
ATOM     19  C   UNL     1       4.032   0.668   0.539  1.00  0.00     0.011 A 
ATOM     20  C   UNL     1       3.323  -1.241  -0.742  1.00  0.00     0.011 A 
ATOM     21  C   UNL     1       5.368   0.340   0.280  1.00  0.00     0.001 A 
ATOM     22  C   UNL     1       4.657  -1.570  -1.001  1.00  0.00     0.001 A 
ATOM     23  C   UNL     1       5.679  -0.778  -0.489  1.00  0.00     0.000 A 
ENDBRANCH  10  18
ENDBRANCH   1   6
TORSDOF 5
