REMARK SMILES [O]=[Fe][O][Fe]=[O]
REMARK SMILES IDX 3 1 2 2 1 3 4 4 5 5
REMARK H PARENT
ROOT
ATOM      1  O   UNL     1       0.055   0.938  -0.393  1.00  0.00    -0.412 OA
ENDROOT
BRANCH   1   2
ATOM      2  Fe  UNL     1      -1.664   0.583   0.089  1.00  0.00     0.617 Fe
ATOM      3  O   UNL     1      -2.047  -1.012  -0.012  1.00  0.00    -0.412 OA
ENDBRANCH   1   2
BRANCH   1   4
ATOM      4  Fe  UNL     1       1.311   0.151   0.666  1.00  0.00     0.617 Fe
ATOM      5  O   UNL     1       2.345  -0.660  -0.350  1.00  0.00    -0.412 OA
ENDBRANCH   1   4
TORSDOF 2
