REMARK SMILES CC(C)C(=O)Oc1ccc(CO)cc1[C@H](CCN(C(C)C)C(C)C)c1ccccc1
REMARK SMILES IDX 15 1 16 2 17 3 18 4 19 5 20 6 21 7 22 8 23 9 24 10 25 11
REMARK SMILES IDX 26 12 30 13 27 14 29 15 28 16 14 17 7 18 13 19 8 20 10 21
REMARK SMILES IDX 9 22 6 23 4 24 5 25 2 26 1 27 3 28 11 29 12 30
REMARK H PARENT 12 31
ROOT
ATOM      1  C   UNL     1      -0.450   0.494   0.246  1.00  0.00     0.054 C 
ENDROOT
BRANCH   1   2
ATOM      2  C   UNL     1      -0.013  -0.476   1.376  1.00  0.00     0.029 C 
BRANCH   2   3
ATOM      3  C   UNL     1       1.004  -1.548   0.934  1.00  0.00     0.086 C 
BRANCH   3   4
ATOM      4  N   UNL     1       2.347  -1.069   0.585  1.00  0.00    -0.299 NA
BRANCH   4   5
ATOM      5  C   UNL     1       3.131  -0.586   1.740  1.00  0.00     0.050 C 
ATOM      6  C   UNL     1       4.257   0.361   1.294  1.00  0.00     0.024 C 
ATOM      7  C   UNL     1       3.708  -1.672   2.650  1.00  0.00     0.024 C 
ENDBRANCH   4   5
BRANCH   4   8
ATOM      8  C   UNL     1       3.086  -1.947  -0.350  1.00  0.00     0.050 C 
ATOM      9  C   UNL     1       2.701  -1.556  -1.782  1.00  0.00     0.024 C 
ATOM     10  C   UNL     1       2.900  -3.459  -0.155  1.00  0.00     0.024 C 
ENDBRANCH   4   8
ENDBRANCH   3   4
ENDBRANCH   2   3
ENDBRANCH   1   2
BRANCH   1  11
ATOM     11  C   UNL     1       0.470   1.673  -0.068  1.00  0.00    -0.040 A 
ATOM     12  C   UNL     1       0.545   2.137  -1.393  1.00  0.00     0.004 A 
ATOM     13  C   UNL     1       1.193   2.365   0.915  1.00  0.00     0.004 A 
ATOM     14  C   UNL     1       1.334   3.239  -1.727  1.00  0.00     0.000 A 
ATOM     15  C   UNL     1       1.981   3.470   0.582  1.00  0.00     0.000 A 
ATOM     16  C   UNL     1       2.055   3.903  -0.739  1.00  0.00     0.000 A 
ENDBRANCH   1  11
BRANCH   1  17
ATOM     17  C   UNL     1      -1.895   0.942   0.497  1.00  0.00     0.003 A 
ATOM     18  C   UNL     1      -2.976   0.313  -0.143  1.00  0.00     0.134 A 
ATOM     19  C   UNL     1      -2.193   1.966   1.415  1.00  0.00     0.014 A 
ATOM     20  C   UNL     1      -4.299   0.679   0.116  1.00  0.00     0.048 A 
ATOM     21  C   UNL     1      -3.515   2.377   1.662  1.00  0.00    -0.022 A 
ATOM     22  C   UNL     1      -4.563   1.717   1.008  1.00  0.00     0.010 A 
BRANCH  18  23
ATOM     23  O   UNL     1      -2.731  -0.790  -0.976  1.00  0.00    -0.426 OA
BRANCH  23  24
ATOM     24  C   UNL     1      -3.056  -0.616  -2.319  1.00  0.00     0.313 C 
ATOM     25  O   UNL     1      -3.502   0.401  -2.834  1.00  0.00    -0.252 OA
BRANCH  24  26
ATOM     26  C   UNL     1      -2.793  -1.899  -3.088  1.00  0.00     0.093 C 
ATOM     27  C   UNL     1      -1.335  -2.325  -2.965  1.00  0.00     0.019 C 
ATOM     28  C   UNL     1      -3.748  -2.997  -2.633  1.00  0.00     0.019 C 
ENDBRANCH  24  26
ENDBRANCH  23  24
ENDBRANCH  18  23
BRANCH  21  29
ATOM     29  C   UNL     1      -3.787   3.474   2.655  1.00  0.00     0.191 C 
BRANCH  29  30
ATOM     30  O   UNL     1      -4.821   4.329   2.187  1.00  0.00    -0.392 OA
ATOM     31  H   UNL     1      -4.683   5.187   2.618  1.00  0.00     0.211 HD
ENDBRANCH  29  30
ENDBRANCH  21  29
ENDBRANCH   1  17
TORSDOF 12
