REMARK SMILES CCC(O)(c1ccccc1)c1cccc(C(F)(F)F)c1
REMARK SMILES IDX 11 1 20 2 15 3 14 4 13 5 12 6 3 7 2 8 1 9 4 10 5 12 6 13
REMARK SMILES IDX 10 14 7 15 9 16 8 17 16 18 17 19 18 20 19 21
REMARK H PARENT 4 11
ROOT
ATOM      1  C   UNL     1       0.744  -0.563  -0.386  1.00  0.00    -0.011 A 
ATOM      2  C   UNL     1       1.539  -1.155   0.609  1.00  0.00     0.020 A 
ATOM      3  C   UNL     1       2.944  -1.038   0.600  1.00  0.00     0.056 A 
ATOM      4  C   UNL     1       3.562  -0.316  -0.428  1.00  0.00     0.013 A 
ATOM      5  C   UNL     1       2.798   0.259  -1.438  1.00  0.00     0.001 A 
ATOM      6  C   UNL     1       1.409   0.130  -1.421  1.00  0.00     0.007 A 
ENDROOT
BRANCH   1   7
ATOM      7  C   UNL     1      -0.791  -0.691  -0.441  1.00  0.00     0.114 C 
BRANCH   7   8
ATOM      8  C   UNL     1      -1.467  -1.454   0.733  1.00  0.00     0.042 C 
ATOM      9  C   UNL     1      -1.513  -0.739   2.080  1.00  0.00     0.008 C 
ENDBRANCH   7   8
BRANCH   7  10
ATOM     10  O   UNL     1      -1.044  -1.530  -1.594  1.00  0.00    -0.380 OA
ATOM     11  H   UNL     1      -0.251  -2.072  -1.743  1.00  0.00     0.212 HD
ENDBRANCH   7  10
BRANCH   7  12
ATOM     12  C   UNL     1      -1.518   0.647  -0.665  1.00  0.00    -0.012 A 
ATOM     13  C   UNL     1      -2.648   0.726  -1.500  1.00  0.00     0.007 A 
ATOM     14  C   UNL     1      -1.105   1.824  -0.011  1.00  0.00     0.007 A 
ATOM     15  C   UNL     1      -3.325   1.933  -1.689  1.00  0.00     0.000 A 
ATOM     16  C   UNL     1      -1.782   3.031  -0.200  1.00  0.00     0.000 A 
ATOM     17  C   UNL     1      -2.891   3.085  -1.040  1.00  0.00     0.000 A 
ENDBRANCH   7  12
ENDBRANCH   1   7
BRANCH   3  18
ATOM     18  C   UNL     1       3.765  -1.659   1.705  1.00  0.00     0.416 C 
ATOM     19  F   UNL     1       5.058  -1.900   1.349  1.00  0.00    -0.166 F 
ATOM     20  F   UNL     1       3.267  -2.856   2.125  1.00  0.00    -0.166 F 
ATOM     21  F   UNL     1       3.822  -0.869   2.812  1.00  0.00    -0.166 F 
ENDBRANCH   3  18
TORSDOF 5
