REMARK SMILES NS(=O)(=O)c1cc2c(cc1C(F)(F)F)N=CNS2(=O)=O
REMARK SMILES IDX 5 1 6 2 7 3 8 4 9 5 10 6 15 7 16 8 17 9 18 10 19 11 20 12
REMARK SMILES IDX 2 14 3 15 4 16 1 17 11 20 12 21 13 22 14 23
REMARK H PARENT 17 13 1 18 1 19
ROOT
ATOM      1  C   UNL     1       1.174  -0.014   0.103  1.00  0.00     0.095 A 
ATOM      2  C   UNL     1       0.235  -0.549   0.995  1.00  0.00     0.047 A 
ATOM      3  C   UNL     1      -1.128  -0.326   0.774  1.00  0.00     0.114 A 
ATOM      4  C   UNL     1      -1.590   0.427  -0.295  1.00  0.00     0.086 A 
ATOM      5  C   UNL     1      -0.634   0.956  -1.173  1.00  0.00     0.044 A 
ATOM      6  C   UNL     1       0.754   0.746  -1.004  1.00  0.00     0.078 A 
ATOM      7  N   UNL     1      -2.930   0.734  -0.559  1.00  0.00    -0.237 NA
ATOM      8  C   UNL     1      -3.872   0.419   0.257  1.00  0.00     0.207 C 
ATOM      9  N   UNL     1      -3.718  -0.316   1.426  1.00  0.00    -0.270 N 
ATOM     10  S   UNL     1      -2.295  -1.040   1.855  1.00  0.00     0.264 S 
ATOM     11  O   UNL     1      -1.998  -0.583   3.194  1.00  0.00    -0.201 OA
ATOM     12  O   UNL     1      -2.393  -2.445   1.532  1.00  0.00    -0.201 OA
ATOM     13  H   UNL     1      -4.369  -0.191   2.195  1.00  0.00     0.181 HD
ENDROOT
BRANCH   1  14
ATOM     14  S   UNL     1       2.896  -0.301   0.440  1.00  0.00     0.238 S 
ATOM     15  O   UNL     1       3.634   0.898   0.140  1.00  0.00    -0.207 OA
ATOM     16  O   UNL     1       3.016  -0.982   1.707  1.00  0.00    -0.207 OA
BRANCH  14  17
ATOM     17  N   UNL     1       3.278  -1.441  -0.723  1.00  0.00    -0.225 NA
ATOM     18  H   UNL     1       3.928  -1.048  -1.408  1.00  0.00     0.137 HD
ATOM     19  H   UNL     1       3.607  -2.303  -0.285  1.00  0.00     0.137 HD
ENDBRANCH  14  17
ENDBRANCH   1  14
BRANCH   6  20
ATOM     20  C   UNL     1       1.703   1.377  -1.999  1.00  0.00     0.417 C 
ATOM     21  F   UNL     1       2.728   0.572  -2.384  1.00  0.00    -0.166 F 
ATOM     22  F   UNL     1       2.248   2.533  -1.541  1.00  0.00    -0.166 F 
ATOM     23  F   UNL     1       1.075   1.716  -3.164  1.00  0.00    -0.166 F 
ENDBRANCH   6  20
TORSDOF 3
