REMARK SMILES CC(=O)O[C@]1(C(C)=O)CC[C@H]2[C@@H]3C[C@H](C)C4=CC(=O)C=C[C@]4(C)[C@@]3(F)[C@@H](O)C[C@@]21C
REMARK SMILES IDX 15 1 14 2 13 3 12 4 11 5 10 6 9 7 5 8 29 9 30 10 28 11 26 12
REMARK SMILES IDX 24 13 25 14 22 15 23 16 21 17 20 18 18 19 19 20 17 21 16 22
REMARK SMILES IDX 27 23 4 25 2 26 3 27 1 28 6 29 8 30 7 31
REMARK H PARENT 27 24
ROOT
ATOM      1  C   UNL     1       3.080   2.525   2.777  1.00  0.00     0.012 C 
ATOM      2  C   UNL     1       2.648   1.282   1.985  1.00  0.00     0.013 C 
ATOM      3  C   UNL     1       1.138   1.356   1.715  1.00  0.00     0.015 C 
ATOM      4  C   UNL     1       0.603   0.104   0.995  1.00  0.00     0.035 C 
ATOM      5  C   UNL     1      -0.889   0.273   0.664  1.00  0.00     0.006 C 
ATOM      6  C   UNL     1      -1.856   0.594   1.796  1.00  0.00     0.009 C 
ATOM      7  C   UNL     1      -3.246   0.253   1.222  1.00  0.00     0.058 C 
ATOM      8  C   UNL     1      -3.015  -0.467  -0.146  1.00  0.00     0.175 C 
ATOM      9  C   UNL     1      -1.524  -0.968  -0.006  1.00  0.00     0.020 C 
ATOM     10  C   UNL     1      -1.462  -2.237   0.891  1.00  0.00     0.016 C 
ATOM     11  C   UNL     1      -0.763  -1.215  -1.328  1.00  0.00     0.047 C 
ATOM     12  C   UNL     1       0.768  -1.342  -1.145  1.00  0.00     0.154 C 
ATOM     13  C   UNL     1       1.389  -0.165  -0.328  1.00  0.00     0.152 C 
ATOM     14  F   UNL     1       1.183   0.956  -1.121  1.00  0.00    -0.239 F 
ATOM     15  C   UNL     1       2.951  -0.251  -0.080  1.00  0.00     0.044 C 
ATOM     16  C   UNL     1       3.386  -1.471   0.767  1.00  0.00     0.024 C 
ATOM     17  C   UNL     1       3.694  -0.391  -1.410  1.00  0.00    -0.009 C 
ATOM     18  C   UNL     1       4.609   0.465  -1.881  1.00  0.00     0.048 C 
ATOM     19  C   UNL     1       4.985   1.664  -1.115  1.00  0.00     0.178 C 
ATOM     20  O   UNL     1       5.827   2.447  -1.534  1.00  0.00    -0.290 OA
ATOM     21  C   UNL     1       4.308   1.882   0.180  1.00  0.00     0.052 C 
ATOM     22  C   UNL     1       3.384   1.033   0.671  1.00  0.00    -0.050 C 
ENDROOT
BRANCH  12  23
ATOM     23  O   UNL     1       1.076  -2.614  -0.586  1.00  0.00    -0.390 OA
ATOM     24  H   UNL     1       0.724  -3.299  -1.183  1.00  0.00     0.211 HD
ENDBRANCH  12  23
BRANCH   8  25
ATOM     25  O   UNL     1      -3.046   0.521  -1.206  1.00  0.00    -0.451 OA
BRANCH  25  26
ATOM     26  C   UNL     1      -4.229   1.120  -1.507  1.00  0.00     0.303 C 
ATOM     27  O   UNL     1      -5.307   0.848  -1.004  1.00  0.00    -0.253 OA
ATOM     28  C   UNL     1      -4.023   2.154  -2.571  1.00  0.00     0.139 C 
ENDBRANCH  25  26
ENDBRANCH   8  25
BRANCH   8  29
ATOM     29  C   UNL     1      -3.993  -1.649  -0.384  1.00  0.00     0.173 C 
ATOM     30  O   UNL     1      -4.549  -2.245   0.543  1.00  0.00    -0.295 OA
ATOM     31  C   UNL     1      -4.223  -2.103  -1.805  1.00  0.00     0.092 C 
ENDBRANCH   8  29
TORSDOF 4
