REMARK SMILES CC(=O)[C@@]1(O)CC[C@H]2[C@@H]3C[C@H](C)C4=CC(=O)C=C[C@]4(C)[C@@]3(F)[C@@H](O)C[C@@]21C
REMARK SMILES IDX 12 1 11 2 10 3 9 4 8 5 7 6 6 7 4 8 26 9 27 10 25 11 23 12
REMARK SMILES IDX 21 13 22 14 19 15 20 16 18 17 17 18 15 19 16 20 14 21 13 22
REMARK SMILES IDX 24 23 5 25 2 27 3 28 1 29
REMARK H PARENT 24 24 5 26
ROOT
ATOM      1  C   UNL     1      -3.363   1.983   2.641  1.00  0.00     0.012 C 
ATOM      2  C   UNL     1      -2.639   1.405   1.417  1.00  0.00     0.013 C 
ATOM      3  C   UNL     1      -1.153   1.215   1.753  1.00  0.00     0.015 C 
ATOM      4  C   UNL     1      -0.332   0.715   0.549  1.00  0.00     0.035 C 
ATOM      5  C   UNL     1       1.127   0.460   0.962  1.00  0.00     0.005 C 
ATOM      6  C   UNL     1       1.913   1.601   1.601  1.00  0.00     0.008 C 
ATOM      7  C   UNL     1       3.390   1.186   1.450  1.00  0.00     0.044 C 
ATOM      8  C   UNL     1       3.408  -0.077   0.540  1.00  0.00     0.128 C 
ATOM      9  C   UNL     1       2.033   0.008  -0.207  1.00  0.00     0.009 C 
ATOM     10  C   UNL     1       2.118   1.060  -1.349  1.00  0.00     0.015 C 
ATOM     11  C   UNL     1       1.451  -1.315  -0.748  1.00  0.00     0.045 C 
ATOM     12  C   UNL     1      -0.038  -1.213  -1.156  1.00  0.00     0.154 C 
ATOM     13  C   UNL     1      -0.938  -0.601  -0.036  1.00  0.00     0.152 C 
ATOM     14  F   UNL     1      -0.884  -1.530   0.995  1.00  0.00    -0.239 F 
ATOM     15  C   UNL     1      -2.470  -0.434  -0.401  1.00  0.00     0.044 C 
ATOM     16  C   UNL     1      -2.734   0.552  -1.564  1.00  0.00     0.024 C 
ATOM     17  C   UNL     1      -3.058  -1.770  -0.856  1.00  0.00    -0.009 C 
ATOM     18  C   UNL     1      -4.078  -2.409  -0.270  1.00  0.00     0.048 C 
ATOM     19  C   UNL     1      -4.740  -1.844   0.916  1.00  0.00     0.178 C 
ATOM     20  O   UNL     1      -5.682  -2.415   1.451  1.00  0.00    -0.290 OA
ATOM     21  C   UNL     1      -4.227  -0.558   1.431  1.00  0.00     0.052 C 
ATOM     22  C   UNL     1      -3.201   0.101   0.857  1.00  0.00    -0.050 C 
ENDROOT
BRANCH  12  23
ATOM     23  O   UNL     1      -0.149  -0.516  -2.391  1.00  0.00    -0.390 OA
ATOM     24  H   UNL     1       0.372  -0.996  -3.059  1.00  0.00     0.211 HD
ENDBRANCH  12  23
BRANCH   8  25
ATOM     25  O   UNL     1       3.452  -1.190   1.438  1.00  0.00    -0.382 OA
ATOM     26  H   UNL     1       3.335  -2.018   0.946  1.00  0.00     0.212 HD
ENDBRANCH   8  25
BRANCH   8  27
ATOM     27  C   UNL     1       4.645  -0.081  -0.395  1.00  0.00     0.161 C 
ATOM     28  O   UNL     1       5.160   0.953  -0.826  1.00  0.00    -0.297 OA
ATOM     29  C   UNL     1       5.192  -1.422  -0.816  1.00  0.00     0.091 C 
ENDBRANCH   8  27
TORSDOF 3
