REMARK SMILES CCCCOC(=O)C(=O)[C@H]1[C@H](C)C[C@H]2[C@@H]3C[C@H](F)C4=CC(=O)C=C[C@]4(C)[C@H]3[C@@H](O)C[C@@]21C
REMARK SMILES IDX 6 1 7 2 5 3 4 4 3 5 2 6 1 7 8 8 9 9 10 10 11 11 31 12 13 13
REMARK SMILES IDX 30 14 14 15 28 16 15 17 27 18 16 19 25 20 17 21 24 22 19 23
REMARK SMILES IDX 23 24 20 25 21 26 22 27 12 28 32 29 26 30 18 31 29 32
REMARK H PARENT 29 33
ROOT
ATOM      1  C   UNL     1       3.401   0.250  -0.549  1.00  0.00     0.374 C 
ATOM      2  O   UNL     1       3.041   1.261   0.029  1.00  0.00    -0.243 OA
ENDROOT
BRANCH   1   3
ATOM      3  O   UNL     1       4.498  -0.489  -0.293  1.00  0.00    -0.460 OA
BRANCH   3   4
ATOM      4  C   UNL     1       5.336  -0.023   0.776  1.00  0.00     0.233 C 
BRANCH   4   5
ATOM      5  C   UNL     1       6.318   1.024   0.254  1.00  0.00     0.041 C 
BRANCH   5   6
ATOM      6  C   UNL     1       7.350   1.463   1.292  1.00  0.00     0.000 C 
ATOM      7  C   UNL     1       6.740   2.182   2.486  1.00  0.00     0.004 C 
ENDBRANCH   5   6
ENDBRANCH   4   5
ENDBRANCH   3   4
ENDBRANCH   1   3
BRANCH   1   8
ATOM      8  C   UNL     1       2.593  -0.367  -1.697  1.00  0.00     0.243 C 
ATOM      9  O   UNL     1       3.112  -1.186  -2.446  1.00  0.00    -0.286 OA
BRANCH   8  10
ATOM     10  C   UNL     1       1.146   0.098  -1.813  1.00  0.00     0.077 C 
ATOM     11  C   UNL     1       0.519  -0.222  -3.207  1.00  0.00    -0.002 C 
ATOM     12  C   UNL     1       0.162  -0.564  -0.810  1.00  0.00    -0.016 C 
ATOM     13  C   UNL     1      -0.974  -0.529  -2.942  1.00  0.00     0.008 C 
ATOM     14  C   UNL     1       0.171   0.039   0.608  1.00  0.00     0.040 C 
ATOM     15  C   UNL     1      -1.171  -0.161  -1.475  1.00  0.00    -0.000 C 
ATOM     16  C   UNL     1      -1.066  -0.349   1.449  1.00  0.00     0.119 C 
ATOM     17  C   UNL     1      -2.410  -0.690  -0.739  1.00  0.00     0.003 C 
ATOM     18  C   UNL     1      -2.418  -0.099   0.715  1.00  0.00     0.035 C 
ATOM     19  C   UNL     1      -3.692  -0.308  -1.495  1.00  0.00     0.046 C 
ATOM     20  C   UNL     1      -3.719  -0.502   1.515  1.00  0.00     0.016 C 
ATOM     21  C   UNL     1      -4.953  -0.689  -0.732  1.00  0.00     0.194 C 
ATOM     22  C   UNL     1      -3.749   0.213   2.862  1.00  0.00    -0.012 C 
ATOM     23  C   UNL     1      -4.925  -0.100   0.654  1.00  0.00    -0.022 C 
ATOM     24  C   UNL     1      -4.702   1.064   3.265  1.00  0.00     0.048 C 
ATOM     25  C   UNL     1      -5.882   0.753   1.062  1.00  0.00     0.055 C 
ATOM     26  C   UNL     1      -5.845   1.390   2.392  1.00  0.00     0.178 C 
ATOM     27  O   UNL     1      -6.723   2.162   2.756  1.00  0.00    -0.290 OA
ATOM     28  C   UNL     1       0.705   0.932  -4.187  1.00  0.00     0.008 C 
ATOM     29  C   UNL     1       0.402  -2.094  -0.757  1.00  0.00     0.012 C 
ATOM     30  C   UNL     1      -3.831  -2.011   1.827  1.00  0.00     0.021 C 
ATOM     31  F   UNL     1      -6.020  -0.228  -1.446  1.00  0.00    -0.243 F 
BRANCH  16  32
ATOM     32  O   UNL     1      -0.954  -1.706   1.852  1.00  0.00    -0.393 OA
ATOM     33  H   UNL     1      -0.125  -1.805   2.352  1.00  0.00     0.210 HD
ENDBRANCH  16  32
ENDBRANCH   8  10
ENDBRANCH   1   8
TORSDOF 7
