REMARK SMILES CC[C@H]1OC(=O)[C@H](C)[C@@H](O[C@H]2C[C@@](C)(OC)[C@@H](O)[C@H](C)O2)[C@H](C)[C@@H](O[C@@H]2O[C@H](C)C[C@H](N(C)C)[C@H]2O)[C@](C)(O)C[C@](C)(F)C(=O)[C@H](C)[C@@H](O)[C@]1(C)O
REMARK SMILES IDX 22 1 23 2 9 3 7 4 8 5 5 6 6 7 4 8 3 9 2 10 1 11 50 12 51 13
REMARK SMILES IDX 52 15 10 17 11 18 12 19 21 20 13 21 19 22 17 23 14 24 20 25
REMARK SMILES IDX 15 26 16 27 18 28 24 30 25 31 26 32 27 33 35 34 28 35 31 36
REMARK SMILES IDX 30 37 29 38 36 39 32 41 33 42 34 43 37 44 38 45 39 46 40 48
REMARK SMILES IDX 41 49 42 50 43 51 44 52 45 53 46 54 47 55 48 56 49 58
REMARK H PARENT 52 16 18 29 36 40 39 47 49 59
REMARK Flexibility Score:   73.900
ROOT
ATOM      1  C   UNL     1       0.356   0.389  -2.049  1.00  0.00     0.048 C 
ATOM      2  C   UNL     1       0.977  -0.779  -2.831  1.00  0.00     0.013 C 
ENDROOT
BRANCH   1   3
ATOM      3  C   UNL     1      -1.083   0.056  -1.520  1.00  0.00     0.141 C 
BRANCH   3   4
ATOM      4  C   UNL     1      -2.206   0.542  -2.478  1.00  0.00     0.125 C 
ATOM      5  C   UNL     1      -2.441  -0.319  -3.719  1.00  0.00     0.023 C 
BRANCH   4   6
ATOM      6  C   UNL     1      -3.502   0.639  -1.679  1.00  0.00     0.311 C 
ATOM      7  O   UNL     1      -4.292  -0.269  -1.475  1.00  0.00    -0.252 OA
BRANCH   6   8
ATOM      8  O   UNL     1      -3.637   1.903  -1.176  1.00  0.00    -0.459 OA
BRANCH   8   9
ATOM      9  C   UNL     1      -4.743   2.131  -0.248  1.00  0.00     0.210 C 
BRANCH   9  10
ATOM     10  C   UNL     1      -5.972   2.511  -1.093  1.00  0.00     0.045 C 
ATOM     11  C   UNL     1      -7.245   2.775  -0.308  1.00  0.00     0.008 C 
ENDBRANCH   9  10
BRANCH   9  12
ATOM     12  C   UNL     1      -4.244   3.182   0.811  1.00  0.00     0.125 CG0
ATOM     13  C   UNL     1      -3.989   4.539   0.150  1.00  0.00     0.049 C 
ATOM     14  G   UNL     1      -2.977   2.587   1.527  1.00  0.00     0.000 G0
BRANCH  12  15
ATOM     15  O   UNL     1      -5.260   3.394   1.802  1.00  0.00    -0.384 OA
ATOM     16  H   UNL     1      -4.940   2.972   2.630  1.00  0.00     0.211 HD
ENDBRANCH  12  15
ENDBRANCH   9  12
ENDBRANCH   8   9
ENDBRANCH   6   8
ENDBRANCH   4   6
ENDBRANCH   3   4
BRANCH   3  17
ATOM     17  O   UNL     1      -1.259  -1.350  -1.319  1.00  0.00    -0.348 OA
BRANCH  17  18
ATOM     18  C   UNL     1      -1.092  -1.817   0.012  1.00  0.00     0.253 C 
ATOM     19  C   UNL     1      -2.111  -2.909   0.335  1.00  0.00     0.100 C 
ATOM     20  O   UNL     1       0.255  -2.210   0.250  1.00  0.00    -0.347 OA
ATOM     21  C   UNL     1      -1.873  -4.246  -0.401  1.00  0.00     0.098 C 
ATOM     22  C   UNL     1       0.598  -3.572  -0.022  1.00  0.00     0.150 C 
ATOM     23  C   UNL     1      -0.403  -4.354  -0.903  1.00  0.00     0.175 C 
ATOM     24  C   UNL     1      -2.217  -5.389   0.579  1.00  0.00     0.045 C 
ATOM     25  C   UNL     1       0.904  -4.240   1.315  1.00  0.00     0.041 C 
BRANCH  21  26
ATOM     26  O   UNL     1      -2.841  -4.289  -1.474  1.00  0.00    -0.376 OA
ATOM     27  C   UNL     1      -2.903  -5.476  -2.252  1.00  0.00     0.195 C 
ENDBRANCH  21  26
BRANCH  23  28
ATOM     28  O   UNL     1      -0.300  -3.899  -2.264  1.00  0.00    -0.387 OA
ATOM     29  H   UNL     1       0.626  -3.697  -2.465  1.00  0.00     0.211 HD
ENDBRANCH  23  28
ENDBRANCH  17  18
ENDBRANCH   3  17
ENDBRANCH   1   3
BRANCH   1  30
ATOM     30  C   UNL     1       1.276   0.882  -0.867  1.00  0.00     0.158 C 
BRANCH  30  31
ATOM     31  O   UNL     1       2.657   0.555  -1.194  1.00  0.00    -0.343 OA
BRANCH  31  32
ATOM     32  C   UNL     1       3.302  -0.287  -0.216  1.00  0.00     0.280 C 
ATOM     33  O   UNL     1       3.696   0.497   0.896  1.00  0.00    -0.347 OA
ATOM     34  C   UNL     1       4.540  -0.939  -0.879  1.00  0.00     0.188 C 
ATOM     35  C   UNL     1       4.281  -0.292   1.925  1.00  0.00     0.120 C 
ATOM     36  C   UNL     1       5.394  -1.748   0.150  1.00  0.00     0.092 C 
ATOM     37  C   UNL     1       5.589  -0.897   1.426  1.00  0.00     0.054 C 
ATOM     38  C   UNL     1       4.518   0.619   3.127  1.00  0.00     0.039 C 
BRANCH  34  39
ATOM     39  O   UNL     1       4.068  -1.803  -1.931  1.00  0.00    -0.386 OA
ATOM     40  H   UNL     1       3.724  -1.189  -2.616  1.00  0.00     0.211 HD
ENDBRANCH  34  39
BRANCH  36  41
ATOM     41  N   UNL     1       6.742  -2.177  -0.345  1.00  0.00    -0.304 NA
ATOM     42  C   UNL     1       7.390  -3.127   0.564  1.00  0.00     0.105 C 
ATOM     43  C   UNL     1       6.715  -2.762  -1.691  1.00  0.00     0.105 C 
ENDBRANCH  36  41
ENDBRANCH  31  32
ENDBRANCH  30  31
BRANCH  30  44
ATOM     44  C   UNL     1       1.231   2.456  -0.572  1.00  0.00     0.092 C 
ATOM     45  C   UNL     1      -0.047   3.156  -1.028  1.00  0.00     0.045 C 
BRANCH  44  46
ATOM     46  O   UNL     1       2.251   3.060  -1.410  1.00  0.00    -0.387 OA
ATOM     47  H   UNL     1       2.887   2.338  -1.597  1.00  0.00     0.211 HD
ENDBRANCH  44  46
BRANCH  44  48
ATOM     48  C   UNL     1       1.673   2.756   0.898  1.00  0.00     0.086 C 
BRANCH  48  49
ATOM     49  C   UNL     1       0.784   3.539   1.893  1.00  0.00     0.169 C 
ATOM     50  C   UNL     1       0.728   5.035   1.615  1.00  0.00     0.057 C 
ATOM     51  F   UNL     1       1.452   3.459   3.104  1.00  0.00    -0.236 F 
BRANCH  49  52
ATOM     52  C   UNL     1      -0.562   2.801   2.065  1.00  0.00     0.175 C 
ATOM     53  O   UNL     1      -0.581   1.572   2.236  1.00  0.00    -0.296 OA
BRANCH  52  54
ATOM     54  C   UNL     1      -1.887   3.568   2.039  1.00  0.00     0.088 C 
ATOM     55  C   UNL     1      -2.189   4.153   3.413  1.00  0.00     0.019 C 
BRANCH  54  56
ATOM     56  C   UNL     1      -2.977   2.587   1.527  1.00  0.00     0.160 CG0
ATOM     57  G   UNL     1      -4.244   3.182   0.811  1.00  0.00     0.000 G0
BRANCH  56  58
ATOM     58  O   UNL     1      -3.438   1.772   2.625  1.00  0.00    -0.389 OA
ATOM     59  H   UNL     1      -2.728   1.121   2.781  1.00  0.00     0.211 HD
ENDBRANCH  56  58
ENDBRANCH  54  56
ENDBRANCH  52  54
ENDBRANCH  49  52
ENDBRANCH  48  49
ENDBRANCH  44  48
ENDBRANCH  30  44
ENDBRANCH   1  30
TORSDOF 12
