REMARK SMILES O=C1NCN(c2ccccc2)C12CCN(CCCC(c1ccc(F)cc1)c1ccc(F)cc1)CC2
REMARK SMILES IDX 18 1 19 2 20 3 23 4 22 5 25 6 21 7 26 8 24 9 27 10 28 11
REMARK SMILES IDX 33 12 29 13 32 14 30 15 31 16 17 17 16 18 15 19 14 20 34 21
REMARK SMILES IDX 13 22 35 23 12 24 5 25 2 26 4 27 3 28 1 29 6 31 7 32 11 33
REMARK SMILES IDX 8 34 10 35 9 36
REMARK H PARENT 3 30
ROOT
ATOM      1  C   UNL     1      -2.555  -0.628  -1.013  1.00  0.00     0.014 C 
ENDROOT
BRANCH   1   2
ATOM      2  C   UNL     1      -3.482  -0.205   0.155  1.00  0.00     0.049 C 
BRANCH   2   3
ATOM      3  C   UNL     1      -4.069   1.187  -0.069  1.00  0.00    -0.040 A 
ATOM      4  C   UNL     1      -5.115   3.751  -0.461  1.00  0.00     0.123 A 
ATOM      5  C   UNL     1      -4.201   3.533   0.562  1.00  0.00     0.039 A 
ATOM      6  C   UNL     1      -5.517   2.713  -1.292  1.00  0.00     0.039 A 
ATOM      7  C   UNL     1      -3.679   2.254   0.759  1.00  0.00     0.007 A 
ATOM      8  C   UNL     1      -4.995   1.433  -1.098  1.00  0.00     0.007 A 
ATOM      9  F   UNL     1      -5.616   4.979  -0.649  1.00  0.00    -0.207 F 
ENDBRANCH   2   3
BRANCH   2  10
ATOM     10  C   UNL     1      -4.574  -1.225   0.499  1.00  0.00    -0.040 A 
ATOM     11  C   UNL     1      -5.139  -1.199   1.790  1.00  0.00     0.007 A 
ATOM     12  C   UNL     1      -5.058  -2.171  -0.421  1.00  0.00     0.007 A 
ATOM     13  C   UNL     1      -6.146  -2.095   2.151  1.00  0.00     0.039 A 
ATOM     14  C   UNL     1      -6.066  -3.068  -0.057  1.00  0.00     0.039 A 
ATOM     15  C   UNL     1      -6.599  -3.022   1.224  1.00  0.00     0.123 A 
ATOM     16  F   UNL     1      -7.567  -3.883   1.567  1.00  0.00    -0.207 F 
ENDBRANCH   2  10
ENDBRANCH   1   2
BRANCH   1  17
ATOM     17  C   UNL     1      -1.318   0.260  -1.235  1.00  0.00     0.016 C 
BRANCH  17  18
ATOM     18  C   UNL     1      -0.306   0.195  -0.081  1.00  0.00     0.084 C 
BRANCH  18  19
ATOM     19  N   UNL     1       0.850   1.082  -0.276  1.00  0.00    -0.303 NA
ATOM     20  C   UNL     1       1.658   1.223   0.936  1.00  0.00     0.087 C 
ATOM     21  C   UNL     1       1.716   0.746  -1.404  1.00  0.00     0.087 C 
ATOM     22  C   UNL     1       2.463  -0.014   1.332  1.00  0.00     0.054 C 
ATOM     23  C   UNL     1       2.491  -0.559  -1.256  1.00  0.00     0.054 C 
ATOM     24  C   UNL     1       3.018  -0.855   0.164  1.00  0.00     0.123 C 
ATOM     25  N   UNL     1       4.515  -0.981   0.203  1.00  0.00    -0.339 N 
ATOM     26  C   UNL     1       2.593  -2.315   0.466  1.00  0.00     0.247 C 
ATOM     27  C   UNL     1       4.924  -2.357   0.436  1.00  0.00     0.238 C 
ATOM     28  N   UNL     1       3.719  -3.076   0.611  1.00  0.00    -0.336 N 
ATOM     29  O   UNL     1       1.462  -2.767   0.566  1.00  0.00    -0.272 OA
ATOM     30  H   UNL     1       3.659  -4.064   0.803  1.00  0.00     0.165 HD
BRANCH  25  31
ATOM     31  C   UNL     1       5.471  -0.006  -0.010  1.00  0.00     0.039 A 
ATOM     32  C   UNL     1       5.152   1.335  -0.246  1.00  0.00     0.026 A 
ATOM     33  C   UNL     1       6.851  -0.298   0.002  1.00  0.00     0.026 A 
ATOM     34  C   UNL     1       6.124   2.324  -0.459  1.00  0.00     0.002 A 
ATOM     35  C   UNL     1       7.836   0.678  -0.209  1.00  0.00     0.002 A 
ATOM     36  C   UNL     1       7.471   1.995  -0.441  1.00  0.00     0.000 A 
ENDBRANCH  25  31
ENDBRANCH  18  19
ENDBRANCH  17  18
ENDBRANCH   1  17
TORSDOF 7
