REMARK SMILES C[N@+]1(CCF)[C@@H]2CC[C@H]1C[C@@H](OC(=O)C(O)(c1ccccc1)c1ccccc1)C2
REMARK SMILES IDX 12 1 11 2 2 3 9 4 6 5 8 6 10 7 7 8 29 9 1 10 3 11 4 12 5 13
REMARK SMILES IDX 13 14 14 15 15 16 16 17 17 19 18 20 22 21 19 22 21 23 20 24
REMARK SMILES IDX 23 25 24 26 28 27 25 28 27 29 26 30
REMARK H PARENT 16 18
ROOT
ATOM      1  O   UNL     1       0.328  -0.150  -0.862  1.00  0.00    -0.459 OA
ENDROOT
BRANCH   1   2
ATOM      2  C   UNL     1      -1.017  -0.132  -1.385  1.00  0.00     0.188 C 
ATOM      3  N   UNL     1      -3.408  -0.268   0.418  1.00  0.00    -0.319 N 
ATOM      4  C   UNL     1      -2.435   0.924   0.493  1.00  0.00     0.189 C 
ATOM      5  C   UNL     1      -2.376  -1.427   0.383  1.00  0.00     0.189 C 
ATOM      6  C   UNL     1      -1.430   0.485   1.570  1.00  0.00     0.071 C 
ATOM      7  C   UNL     1      -1.745   1.120  -0.868  1.00  0.00     0.110 C 
ATOM      8  C   UNL     1      -1.379  -1.043   1.487  1.00  0.00     0.071 C 
ATOM      9  C   UNL     1      -1.677  -1.464  -0.986  1.00  0.00     0.110 C 
ATOM     10  C   UNL     1      -4.274  -0.364   1.705  1.00  0.00     0.335 C 
BRANCH   3  11
ATOM     11  C   UNL     1      -4.406  -0.275  -0.786  1.00  0.00     0.298 C 
BRANCH  11  12
ATOM     12  C   UNL     1      -5.410   0.881  -0.775  1.00  0.00     0.275 C 
ATOM     13  F   UNL     1      -6.273   0.723   0.262  1.00  0.00    -0.245 F 
ENDBRANCH  11  12
ENDBRANCH   3  11
ENDBRANCH   1   2
BRANCH   1  14
ATOM     14  C   UNL     1       1.290   0.467  -1.618  1.00  0.00     0.347 C 
ATOM     15  O   UNL     1       1.025   1.163  -2.595  1.00  0.00    -0.248 OA
BRANCH  14  16
ATOM     16  C   UNL     1       2.732   0.228  -1.072  1.00  0.00     0.213 C 
BRANCH  16  17
ATOM     17  O   UNL     1       3.578   0.188  -2.243  1.00  0.00    -0.370 OA
ATOM     18  H   UNL     1       3.532   1.076  -2.643  1.00  0.00     0.213 HD
ENDBRANCH  16  17
BRANCH  16  19
ATOM     19  C   UNL     1       3.253   1.405  -0.231  1.00  0.00    -0.001 A 
ATOM     20  C   UNL     1       2.427   2.442   0.237  1.00  0.00     0.008 A 
ATOM     21  C   UNL     1       4.623   1.453   0.105  1.00  0.00     0.008 A 
ATOM     22  C   UNL     1       2.951   3.483   1.009  1.00  0.00     0.000 A 
ATOM     23  C   UNL     1       5.143   2.492   0.877  1.00  0.00     0.000 A 
ATOM     24  C   UNL     1       4.306   3.507   1.329  1.00  0.00     0.000 A 
ENDBRANCH  16  19
BRANCH  16  25
ATOM     25  C   UNL     1       2.834  -1.137  -0.369  1.00  0.00    -0.001 A 
ATOM     26  C   UNL     1       3.014  -2.312  -1.124  1.00  0.00     0.008 A 
ATOM     27  C   UNL     1       2.692  -1.268   1.026  1.00  0.00     0.008 A 
ATOM     28  C   UNL     1       3.063  -3.565  -0.508  1.00  0.00     0.000 A 
ATOM     29  C   UNL     1       2.744  -2.521   1.640  1.00  0.00     0.000 A 
ATOM     30  C   UNL     1       2.929  -3.668   0.874  1.00  0.00     0.000 A 
ENDBRANCH  16  25
ENDBRANCH  14  16
ENDBRANCH   1  14
TORSDOF 8
