REMARK SMILES Nc1nc2c(c(=O)[nH]1)N[C@@H]1[C@H](N2)O[C@@H]2COP(=O)(O)O[C@@H]2C1(O)O
REMARK SMILES IDX 15 1 14 2 21 3 22 4 10 5 11 6 13 7 12 8 4 9 5 10 9 11 6 12
REMARK SMILES IDX 7 13 8 14 2 15 3 16 1 17 20 18 17 19 18 20 16 21 19 27 23 29
REMARK SMILES IDX 24 31
REMARK H PARENT 12 22 9 23 8 24 1 25 1 26 19 28 23 30 24 32
ROOT
ATOM      1  C   UNL     1       2.868  -2.642   0.054  1.00  0.00     0.208 C 
ATOM      2  C   UNL     1       2.103  -1.388  -0.376  1.00  0.00     0.182 C 
ATOM      3  C   UNL     1       2.470  -0.169   0.502  1.00  0.00     0.223 C 
ATOM      4  C   UNL     1       1.231   0.686   0.838  1.00  0.00     0.218 C 
ATOM      5  C   UNL     1       0.341   0.799  -0.425  1.00  0.00     0.192 C 
ATOM      6  C   UNL     1      -0.111  -0.640  -0.869  1.00  0.00     0.242 C 
ATOM      7  O   UNL     1       0.710  -1.688  -0.368  1.00  0.00    -0.347 OA
ATOM      8  N   UNL     1      -1.466  -0.944  -0.429  1.00  0.00    -0.341 N 
ATOM      9  C   UNL     1      -2.473   0.011  -0.477  1.00  0.00     0.161 C 
ATOM     10  C   UNL     1      -2.107   1.309  -0.353  1.00  0.00     0.144 C 
ATOM     11  N   UNL     1      -0.789   1.732  -0.170  1.00  0.00    -0.366 N 
ATOM     12  C   UNL     1      -3.190   2.329  -0.450  1.00  0.00     0.277 C 
ATOM     13  O   UNL     1      -2.941   3.532  -0.468  1.00  0.00    -0.267 OA
ATOM     14  N   UNL     1      -4.454   1.833  -0.541  1.00  0.00    -0.291 N 
ATOM     15  C   UNL     1      -4.701   0.505  -0.667  1.00  0.00     0.202 C 
ATOM     16  N   UNL     1      -3.770  -0.393  -0.648  1.00  0.00    -0.195 NA
ATOM     17  N   UNL     1      -5.999   0.143  -0.817  1.00  0.00    -0.369 N 
ATOM     18  O   UNL     1       3.154  -0.556   1.697  1.00  0.00    -0.275 OA
ATOM     19  P   UNL     1       4.521  -1.366   1.508  1.00  0.00     0.472 P 
ATOM     20  O   UNL     1       5.091  -2.011   2.723  1.00  0.00    -0.228 OA
ATOM     21  O   UNL     1       4.234  -2.331   0.256  1.00  0.00    -0.284 OA
ATOM     22  H   UNL     1      -1.809  -1.849  -0.733  1.00  0.00     0.164 HD
ATOM     23  H   UNL     1      -0.657   2.709  -0.437  1.00  0.00     0.161 HD
ATOM     24  H   UNL     1      -5.195   2.505  -0.650  1.00  0.00     0.173 HD
ATOM     25  H   UNL     1      -6.117  -0.860  -0.699  1.00  0.00     0.159 HD
ATOM     26  H   UNL     1      -6.670   0.668  -0.272  1.00  0.00     0.159 HD
ENDROOT
BRANCH  19  27
ATOM     27  O   UNL     1       5.499  -0.262   0.883  1.00  0.00    -0.302 OA
ATOM     28  H   UNL     1       5.981   0.189   1.601  1.00  0.00     0.223 HD
ENDBRANCH  19  27
BRANCH   4  29
ATOM     29  O   UNL     1       1.663   1.990   1.230  1.00  0.00    -0.362 OA
ATOM     30  H   UNL     1       0.835   2.444   1.467  1.00  0.00     0.214 HD
ENDBRANCH   4  29
BRANCH   4  31
ATOM     31  O   UNL     1       0.523   0.150   1.950  1.00  0.00    -0.362 OA
ATOM     32  H   UNL     1      -0.428   0.205   1.738  1.00  0.00     0.214 HD
ENDBRANCH   4  31
TORSDOF 3
