REMARK SMILES CC/C(=C(/CC)c1ccc(OP(=O)(O)O)cc1)c1ccc(OP(=O)(O)O)cc1
REMARK SMILES IDX 3 1 4 2 2 3 1 4 18 5 19 6 28 7 20 8 27 9 21 10 22 11 23 12
REMARK SMILES IDX 24 13 25 14 26 16 5 18 6 19 7 20 8 21 17 22 9 23 16 24 10 25
REMARK SMILES IDX 11 26 12 27 13 28 14 29 15 31
REMARK H PARENT 25 15 26 17 14 30 15 32
ROOT
ATOM      1  C   UNL     1      -0.412  -0.849   0.163  1.00  0.00    -0.037 C 
ATOM      2  C   UNL     1       0.388   0.109  -0.366  1.00  0.00    -0.037 C 
ENDROOT
BRANCH   1   3
ATOM      3  C   UNL     1       0.057  -2.045   0.975  1.00  0.00     0.033 C 
ATOM      4  C   UNL     1       0.148  -3.320   0.146  1.00  0.00     0.009 C 
ENDBRANCH   1   3
BRANCH   1   5
ATOM      5  C   UNL     1      -1.881  -0.761   0.029  1.00  0.00    -0.022 A 
ATOM      6  C   UNL     1      -2.646  -0.171   1.043  1.00  0.00     0.012 A 
ATOM      7  C   UNL     1      -2.523  -1.265  -1.107  1.00  0.00     0.012 A 
ATOM      8  C   UNL     1      -4.035  -0.081   0.922  1.00  0.00     0.047 A 
ATOM      9  C   UNL     1      -3.911  -1.176  -1.226  1.00  0.00     0.047 A 
ATOM     10  C   UNL     1      -4.664  -0.573  -0.219  1.00  0.00     0.131 A 
BRANCH  10  11
ATOM     11  O   UNL     1      -6.013  -0.524  -0.420  1.00  0.00    -0.404 OA
BRANCH  11  12
ATOM     12  P   UNL     1      -6.964   0.624   0.163  1.00  0.00     0.524 P 
ATOM     13  O   UNL     1      -7.045   0.796   1.642  1.00  0.00    -0.216 OA
BRANCH  12  14
ATOM     14  O   UNL     1      -6.519   1.957  -0.601  1.00  0.00    -0.293 OA
ATOM     15  H   UNL     1      -5.715   2.343  -0.210  1.00  0.00     0.225 HD
ENDBRANCH  12  14
BRANCH  12  16
ATOM     16  O   UNL     1      -8.389   0.345  -0.505  1.00  0.00    -0.293 OA
ATOM     17  H   UNL     1      -9.078   0.890  -0.087  1.00  0.00     0.225 HD
ENDBRANCH  12  16
ENDBRANCH  11  12
ENDBRANCH  10  11
ENDBRANCH   1   5
BRANCH   2  18
ATOM     18  C   UNL     1      -0.081   1.305  -1.178  1.00  0.00     0.033 C 
ATOM     19  C   UNL     1      -0.192   2.575  -0.344  1.00  0.00     0.009 C 
ENDBRANCH   2  18
BRANCH   2  20
ATOM     20  C   UNL     1       1.857   0.020  -0.235  1.00  0.00    -0.022 A 
ATOM     21  C   UNL     1       2.503   0.535   0.896  1.00  0.00     0.012 A 
ATOM     22  C   UNL     1       2.615  -0.601  -1.233  1.00  0.00     0.012 A 
ATOM     23  C   UNL     1       3.892   0.442   1.023  1.00  0.00     0.047 A 
ATOM     24  C   UNL     1       4.002  -0.695  -1.105  1.00  0.00     0.047 A 
ATOM     25  C   UNL     1       4.640  -0.162   0.015  1.00  0.00     0.131 A 
BRANCH  25  26
ATOM     26  O   UNL     1       5.998  -0.296   0.058  1.00  0.00    -0.404 OA
BRANCH  26  27
ATOM     27  P   UNL     1       6.975   0.753   0.772  1.00  0.00     0.524 P 
ATOM     28  O   UNL     1       6.816   0.992   2.235  1.00  0.00    -0.216 OA
BRANCH  27  29
ATOM     29  O   UNL     1       8.446   0.259   0.383  1.00  0.00    -0.293 OA
ATOM     30  H   UNL     1       9.117   0.733   0.905  1.00  0.00     0.225 HD
ENDBRANCH  27  29
BRANCH  27  31
ATOM     31  O   UNL     1       6.856   2.089  -0.101  1.00  0.00    -0.293 OA
ATOM     32  H   UNL     1       6.055   2.594   0.126  1.00  0.00     0.225 HD
ENDBRANCH  27  31
ENDBRANCH  26  27
ENDBRANCH  25  26
ENDBRANCH   2  20
TORSDOF 12
