REMARK SMILES NC[C@@H]1O[C@H](O[C@H]2[C@@H](O)[C@H](O[C@@H]3[C@@H](O)[C@H](N)C[C@H](N)[C@H]3O[C@H]3O[C@H](CN)[C@@H](O)[C@H](O)[C@H]3N)O[C@@H]2CO)[C@H](N)[C@@H](O)[C@@H]1O
REMARK SMILES IDX 11 1 10 2 7 3 34 4 8 5 33 6 6 7 5 8 3 9 4 10 41 11 39 12
REMARK SMILES IDX 37 13 2 14 1 15 42 18 40 20 38 22 35 25 36 26 9 28 12 30
REMARK SMILES IDX 13 31 20 32 15 33 18 34 17 35 14 36 21 38 22 39 23 40 31 41
REMARK SMILES IDX 24 42 29 43 27 44 32 45 25 48 26 49 30 52 28 54 16 56 19 59
REMARK H PARENT 1 16 1 17 42 19 40 21 38 23 38 24 36 27 9 29 14 37 32 46 32 47
REMARK H PARENT 26 50 26 51 30 53 28 55 16 57 16 58 19 60 19 61
ROOT
ATOM      1  O   UNL     1       0.141  -1.929   0.197  1.00  0.00    -0.341 OA
ENDROOT
BRANCH   1   2
ATOM      2  C   UNL     1       0.441  -1.235   1.404  1.00  0.00     0.282 C 
ATOM      3  C   UNL     1       2.227   0.129   0.686  1.00  0.00     0.186 C 
ATOM      4  C   UNL     1       1.016   1.001   1.018  1.00  0.00     0.179 C 
ATOM      5  C   UNL     1       1.964  -1.105   1.541  1.00  0.00     0.202 C 
ATOM      6  O   UNL     1      -0.072   0.108   1.349  1.00  0.00    -0.341 OA
BRANCH   3   7
ATOM      7  O   UNL     1       3.429   0.796   1.056  1.00  0.00    -0.342 OA
BRANCH   7   8
ATOM      8  C   UNL     1       4.588   0.259   0.407  1.00  0.00     0.270 C 
ATOM      9  C   UNL     1       6.015   1.231  -1.283  1.00  0.00     0.166 C 
ATOM     10  O   UNL     1       4.684   0.909  -0.863  1.00  0.00    -0.344 OA
ATOM     11  C   UNL     1       6.714   2.193  -0.288  1.00  0.00     0.175 C 
ATOM     12  C   UNL     1       6.211   1.986   1.147  1.00  0.00     0.167 C 
ATOM     13  C   UNL     1       5.797   0.523   1.346  1.00  0.00     0.139 C 
BRANCH   9  14
ATOM     14  C   UNL     1       5.933   1.768  -2.730  1.00  0.00     0.112 C 
BRANCH  14  15
ATOM     15  N   UNL     1       7.221   2.107  -3.341  1.00  0.00    -0.328 NA
ATOM     16  H   UNL     1       7.886   1.346  -3.208  1.00  0.00     0.118 HD
ATOM     17  H   UNL     1       7.590   2.929  -2.846  1.00  0.00     0.118 HD
ENDBRANCH  14  15
ENDBRANCH   9  14
BRANCH  11  18
ATOM     18  O   UNL     1       6.544   3.573  -0.629  1.00  0.00    -0.388 OA
ATOM     19  H   UNL     1       6.921   4.084   0.115  1.00  0.00     0.211 HD
ENDBRANCH  11  18
BRANCH  12  20
ATOM     20  O   UNL     1       7.253   2.347   2.073  1.00  0.00    -0.388 OA
ATOM     21  H   UNL     1       7.022   1.840   2.885  1.00  0.00     0.211 HD
ENDBRANCH  12  20
BRANCH  13  22
ATOM     22  N   UNL     1       5.540   0.262   2.789  1.00  0.00    -0.321 NA
ATOM     23  H   UNL     1       5.448  -0.749   2.927  1.00  0.00     0.119 HD
ATOM     24  H   UNL     1       4.584   0.590   2.978  1.00  0.00     0.119 HD
ENDBRANCH  13  22
ENDBRANCH   7   8
ENDBRANCH   3   7
BRANCH   4  25
ATOM     25  C   UNL     1       0.629   1.904  -0.151  1.00  0.00     0.191 C 
BRANCH  25  26
ATOM     26  O   UNL     1      -0.374   2.845   0.250  1.00  0.00    -0.394 OA
ATOM     27  H   UNL     1      -0.520   3.412  -0.537  1.00  0.00     0.210 HD
ENDBRANCH  25  26
ENDBRANCH   4  25
BRANCH   5  28
ATOM     28  O   UNL     1       2.371  -0.880   2.906  1.00  0.00    -0.385 OA
ATOM     29  H   UNL     1       1.754  -0.238   3.296  1.00  0.00     0.211 HD
ENDBRANCH   5  28
ENDBRANCH   1   2
BRANCH   1  30
ATOM     30  C   UNL     1      -1.165  -2.553   0.205  1.00  0.00     0.182 C 
ATOM     31  C   UNL     1      -1.059  -3.904  -0.520  1.00  0.00     0.163 C 
ATOM     32  C   UNL     1      -2.197  -1.617  -0.472  1.00  0.00     0.170 C 
ATOM     33  C   UNL     1      -2.412  -4.647  -0.425  1.00  0.00     0.084 C 
ATOM     34  C   UNL     1      -3.274  -2.374  -1.302  1.00  0.00     0.084 C 
ATOM     35  C   UNL     1      -3.623  -3.734  -0.679  1.00  0.00     0.043 C 
BRANCH  31  36
ATOM     36  O   UNL     1      -0.047  -4.719   0.103  1.00  0.00    -0.389 OA
ATOM     37  H   UNL     1       0.149  -5.419  -0.545  1.00  0.00     0.211 HD
ENDBRANCH  31  36
BRANCH  32  38
ATOM     38  O   UNL     1      -2.825  -0.850   0.576  1.00  0.00    -0.343 OA
BRANCH  38  39
ATOM     39  C   UNL     1      -3.134   0.494   0.165  1.00  0.00     0.270 C 
ATOM     40  O   UNL     1      -4.227   0.495  -0.755  1.00  0.00    -0.344 OA
ATOM     41  C   UNL     1      -3.323   1.367   1.446  1.00  0.00     0.139 C 
ATOM     42  C   UNL     1      -5.425   1.120  -0.277  1.00  0.00     0.166 C 
ATOM     43  C   UNL     1      -3.939   2.727   1.060  1.00  0.00     0.167 C 
ATOM     44  C   UNL     1      -5.116   2.595   0.064  1.00  0.00     0.175 C 
BRANCH  41  45
ATOM     45  N   UNL     1      -4.131   0.682   2.489  1.00  0.00    -0.321 NA
ATOM     46  H   UNL     1      -3.943   1.102   3.399  1.00  0.00     0.119 HD
ATOM     47  H   UNL     1      -3.793  -0.286   2.536  1.00  0.00     0.119 HD
ENDBRANCH  41  45
BRANCH  42  48
ATOM     48  C   UNL     1      -6.516   1.031  -1.374  1.00  0.00     0.112 C 
BRANCH  48  49
ATOM     49  N   UNL     1      -6.878  -0.356  -1.726  1.00  0.00    -0.328 NA
ATOM     50  H   UNL     1      -7.753  -0.355  -2.252  1.00  0.00     0.118 HD
ATOM     51  H   UNL     1      -7.073  -0.864  -0.865  1.00  0.00     0.118 HD
ENDBRANCH  48  49
ENDBRANCH  42  48
BRANCH  43  52
ATOM     52  O   UNL     1      -2.953   3.606   0.480  1.00  0.00    -0.388 OA
ATOM     53  H   UNL     1      -2.081   3.380   0.860  1.00  0.00     0.211 HD
ENDBRANCH  43  52
BRANCH  44  54
ATOM     54  O   UNL     1      -6.278   3.255   0.584  1.00  0.00    -0.388 OA
ATOM     55  H   UNL     1      -6.218   4.196   0.307  1.00  0.00     0.211 HD
ENDBRANCH  44  54
ENDBRANCH  38  39
ENDBRANCH  32  38
BRANCH  33  56
ATOM     56  N   UNL     1      -2.434  -5.845  -1.286  1.00  0.00    -0.325 NA
ATOM     57  H   UNL     1      -1.765  -6.521  -0.922  1.00  0.00     0.119 HD
ATOM     58  H   UNL     1      -3.343  -6.303  -1.196  1.00  0.00     0.119 HD
ENDBRANCH  33  56
BRANCH  34  59
ATOM     59  N   UNL     1      -2.841  -2.548  -2.698  1.00  0.00    -0.325 NA
ATOM     60  H   UNL     1      -3.528  -3.127  -3.183  1.00  0.00     0.119 HD
ATOM     61  H   UNL     1      -2.885  -1.638  -3.161  1.00  0.00     0.119 HD
ENDBRANCH  34  59
ENDBRANCH   1  30
TORSDOF 22
