REMARK SMILES CN[C@@H]1CCc2[nH]c3ccc(C(N)=O)cc3c2C1
REMARK SMILES IDX 3 1 4 2 5 3 6 4 17 5 18 6 16 7 15 8 11 9 10 10 9 11 8 12
REMARK SMILES IDX 7 13 2 15 1 16 12 18 13 19 14 20
REMARK H PARENT 7 14 2 17 13 21 13 22
ROOT
ATOM      1  C   UNL     1      -2.760   0.351  -0.595  1.00  0.00     0.058 C 
ATOM      2  C   UNL     1      -3.058  -1.077  -0.059  1.00  0.00     0.025 C 
ATOM      3  C   UNL     1      -2.146  -1.501   1.107  1.00  0.00     0.056 C 
ATOM      4  C   UNL     1      -0.743  -1.110   0.808  1.00  0.00     0.019 A 
ATOM      5  C   UNL     1      -0.332  -0.228  -0.170  1.00  0.00    -0.018 A 
ATOM      6  C   UNL     1      -1.289   0.436  -1.110  1.00  0.00     0.057 C 
ATOM      7  C   UNL     1       1.085  -0.132  -0.089  1.00  0.00     0.004 A 
ATOM      8  C   UNL     1       2.063   0.587  -0.803  1.00  0.00     0.024 A 
ATOM      9  C   UNL     1       3.416   0.441  -0.460  1.00  0.00     0.040 A 
ATOM     10  C   UNL     1       3.791  -0.392   0.601  1.00  0.00     0.016 A 
ATOM     11  C   UNL     1       2.835  -1.114   1.325  1.00  0.00     0.027 A 
ATOM     12  C   UNL     1       1.493  -0.967   0.955  1.00  0.00     0.046 A 
ATOM     13  N   UNL     1       0.360  -1.548   1.485  1.00  0.00    -0.358 N 
ATOM     14  H   UNL     1       0.356  -2.196   2.260  1.00  0.00     0.166 HD
ENDROOT
BRANCH   1  15
ATOM     15  N   UNL     1      -2.995   1.428   0.385  1.00  0.00    -0.317 NA
ATOM     16  C   UNL     1      -4.367   1.514   0.852  1.00  0.00     0.101 C 
ATOM     17  H   UNL     1      -2.355   1.321   1.173  1.00  0.00     0.122 HD
ENDBRANCH   1  15
BRANCH   9  18
ATOM     18  C   UNL     1       4.420   1.211  -1.243  1.00  0.00     0.248 C 
ATOM     19  N   UNL     1       5.699   0.726  -1.276  1.00  0.00    -0.366 N 
ATOM     20  O   UNL     1       4.119   2.218  -1.871  1.00  0.00    -0.270 OA
ATOM     21  H   UNL     1       5.906  -0.234  -1.043  1.00  0.00     0.159 HD
ATOM     22  H   UNL     1       6.320   1.188  -1.928  1.00  0.00     0.159 HD
ENDBRANCH   9  18
TORSDOF 2
