REMARK SMILES Nc1nc2c(ncn2COC(CO)CO)c(=O)[nH]1
REMARK SMILES IDX 10 1 9 2 8 3 1 4 2 5 3 6 18 7 4 8 16 9 5 10 17 11 6 12 7 13
REMARK SMILES IDX 11 17 12 18 13 19 14 21 15 22
REMARK H PARENT 1 14 1 15 18 16 13 20 15 23
ROOT
ATOM      1  O   UNL     1      -1.572   0.284  -0.685  1.00  0.00    -0.353 OA
ENDROOT
BRANCH   1   2
ATOM      2  C   UNL     1      -0.575  -0.385   0.090  1.00  0.00     0.288 C 
BRANCH   2   3
ATOM      3  N   UNL     1       0.596  -0.589  -0.743  1.00  0.00    -0.291 N 
ATOM      4  N   UNL     1       4.243  -0.189   2.230  1.00  0.00    -0.369 N 
ATOM      5  C   UNL     1       3.648  -0.397   1.028  1.00  0.00     0.202 C 
ATOM      6  N   UNL     1       2.347  -0.347   0.929  1.00  0.00    -0.195 NA
ATOM      7  N   UNL     1       4.492  -0.665  -0.030  1.00  0.00    -0.291 N 
ATOM      8  C   UNL     1       1.897  -0.577  -0.328  1.00  0.00     0.171 A 
ATOM      9  C   UNL     1       4.073  -0.893  -1.335  1.00  0.00     0.280 C 
ATOM     10  C   UNL     1       2.633  -0.850  -1.460  1.00  0.00     0.173 A 
ATOM     11  O   UNL     1       4.871  -1.101  -2.243  1.00  0.00    -0.267 OA
ATOM     12  N   UNL     1       1.826  -1.045  -2.552  1.00  0.00    -0.229 NA
ATOM     13  C   UNL     1       0.603  -0.883  -2.084  1.00  0.00     0.204 A 
ATOM     14  H   UNL     1       5.056  -0.755   2.431  1.00  0.00     0.159 HD
ATOM     15  H   UNL     1       3.568  -0.201   2.989  1.00  0.00     0.159 HD
ATOM     16  H   UNL     1       5.489  -0.637   0.099  1.00  0.00     0.173 HD
ENDBRANCH   2   3
ENDBRANCH   1   2
BRANCH   1  17
ATOM     17  C   UNL     1      -2.572   0.934   0.119  1.00  0.00     0.171 C 
BRANCH  17  18
ATOM     18  C   UNL     1      -3.502  -0.076   0.812  1.00  0.00     0.190 C 
BRANCH  18  19
ATOM     19  O   UNL     1      -2.809  -0.758   1.861  1.00  0.00    -0.394 OA
ATOM     20  H   UNL     1      -3.468  -1.314   2.314  1.00  0.00     0.210 HD
ENDBRANCH  18  19
ENDBRANCH  17  18
BRANCH  17  21
ATOM     21  C   UNL     1      -3.372   1.840  -0.826  1.00  0.00     0.190 C 
BRANCH  21  22
ATOM     22  O   UNL     1      -4.351   2.591  -0.120  1.00  0.00    -0.394 OA
ATOM     23  H   UNL     1      -4.749   3.208  -0.759  1.00  0.00     0.210 HD
ENDBRANCH  21  22
ENDBRANCH  17  21
ENDBRANCH   1  17
TORSDOF 7
