REMARK SMILES CC(C)=CCC/C(C)=C/CC/C(C)=C/CCC(=O)OC/C=C(\C)CCC=C(C)C
REMARK SMILES IDX 15 1 14 2 12 3 13 4 11 5 10 6 9 7 7 8 8 9 6 10 5 11 4 12
REMARK SMILES IDX 2 13 1 14 3 15 16 16 17 17 18 18 19 19 20 20 21 21 22 22
REMARK SMILES IDX 23 23 24 24 25 25 26 26 27 27 28 28 29 29
REMARK H PARENT
ROOT
ATOM      1  C   UNL     1      -0.690  -3.335   1.158  1.00  0.00     0.039 C 
ENDROOT
BRANCH   1   2
ATOM      2  C   UNL     1       0.599  -2.747   0.646  1.00  0.00    -0.027 C 
ATOM      3  C   UNL     1       0.781  -1.932  -0.413  1.00  0.00    -0.077 C 
ATOM      4  C   UNL     1      -0.339  -1.427  -1.291  1.00  0.00     0.039 C 
BRANCH   3   5
ATOM      5  C   UNL     1       2.145  -1.406  -0.849  1.00  0.00     0.034 C 
BRANCH   5   6
ATOM      6  C   UNL     1       3.354  -1.726   0.042  1.00  0.00     0.032 C 
BRANCH   6   7
ATOM      7  C   UNL     1       4.624  -1.132  -0.510  1.00  0.00    -0.028 C 
ATOM      8  C   UNL     1       5.202   0.031  -0.148  1.00  0.00    -0.077 C 
ATOM      9  C   UNL     1       4.612   0.992   0.851  1.00  0.00     0.039 C 
BRANCH   8  10
ATOM     10  C   UNL     1       6.500   0.480  -0.794  1.00  0.00     0.034 C 
BRANCH  10  11
ATOM     11  C   UNL     1       7.671   0.543   0.194  1.00  0.00     0.032 C 
BRANCH  11  12
ATOM     12  C   UNL     1       8.956   0.903  -0.503  1.00  0.00    -0.028 C 
ATOM     13  C   UNL     1       9.517   2.123  -0.607  1.00  0.00    -0.080 C 
ATOM     14  C   UNL     1      10.825   2.309  -1.331  1.00  0.00     0.039 C 
ATOM     15  C   UNL     1       8.928   3.393  -0.057  1.00  0.00     0.039 C 
ENDBRANCH  11  12
ENDBRANCH  10  11
ENDBRANCH   8  10
ENDBRANCH   6   7
ENDBRANCH   5   6
ENDBRANCH   3   5
ENDBRANCH   1   2
BRANCH   1  16
ATOM     16  C   UNL     1      -1.076  -2.773   2.521  1.00  0.00     0.127 C 
BRANCH  16  17
ATOM     17  C   UNL     1      -1.477  -1.321   2.459  1.00  0.00     0.306 C 
ATOM     18  O   UNL     1      -0.891  -0.422   3.048  1.00  0.00    -0.252 OA
BRANCH  17  19
ATOM     19  O   UNL     1      -2.599  -1.166   1.707  1.00  0.00    -0.461 OA
BRANCH  19  20
ATOM     20  C   UNL     1      -3.071   0.181   1.654  1.00  0.00     0.260 C 
BRANCH  20  21
ATOM     21  C   UNL     1      -4.332   0.238   0.837  1.00  0.00     0.013 C 
ATOM     22  C   UNL     1      -5.444  -0.515   0.980  1.00  0.00    -0.074 C 
ATOM     23  C   UNL     1      -5.592  -1.551   2.068  1.00  0.00     0.039 C 
BRANCH  22  24
ATOM     24  C   UNL     1      -6.669  -0.414   0.081  1.00  0.00     0.034 C 
BRANCH  24  25
ATOM     25  C   UNL     1      -6.674   0.681  -0.994  1.00  0.00     0.032 C 
BRANCH  25  26
ATOM     26  C   UNL     1      -7.941   0.656  -1.809  1.00  0.00    -0.028 C 
ATOM     27  C   UNL     1      -9.055   1.386  -1.606  1.00  0.00    -0.080 C 
ATOM     28  C   UNL     1     -10.232   1.273  -2.539  1.00  0.00     0.039 C 
ATOM     29  C   UNL     1      -9.259   2.341  -0.463  1.00  0.00     0.039 C 
ENDBRANCH  25  26
ENDBRANCH  24  25
ENDBRANCH  22  24
ENDBRANCH  20  21
ENDBRANCH  19  20
ENDBRANCH  17  19
ENDBRANCH  16  17
ENDBRANCH   1  16
TORSDOF 15
