REMARK SMILES Nc1ccn([C@@H]2O[C@H](CO)[C@@H](O)C2(F)F)c(=O)n1
REMARK SMILES IDX 6 1 7 2 8 3 11 4 13 5 14 6 15 7 5 8 1 9 2 10 18 11 3 12
REMARK SMILES IDX 16 13 4 14 17 15 9 18 10 19 12 21
REMARK H PARENT 1 16 1 17 10 20 12 22
ROOT
ATOM      1  C   UNL     1      -0.222  -0.464   0.950  1.00  0.00     0.297 C 
ATOM      2  O   UNL     1      -0.786  -1.491   0.109  1.00  0.00    -0.343 OA
ATOM      3  C   UNL     1      -2.197  -1.206  -0.023  1.00  0.00     0.181 C 
ATOM      4  C   UNL     1      -2.375   0.299   0.149  1.00  0.00     0.220 C 
ATOM      5  C   UNL     1      -1.288   0.622   1.157  1.00  0.00     0.320 C 
ATOM      6  F   UNL     1      -1.778   0.530   2.425  1.00  0.00    -0.198 F 
ATOM      7  F   UNL     1      -0.829   1.883   1.019  1.00  0.00    -0.198 F 
ENDROOT
BRANCH   1   8
ATOM      8  N   UNL     1       1.062  -0.037   0.400  1.00  0.00    -0.266 N 
ATOM      9  N   UNL     1       4.540   1.295  -1.210  1.00  0.00    -0.383 N 
ATOM     10  C   UNL     1       3.375   0.841  -0.659  1.00  0.00     0.130 C 
ATOM     11  N   UNL     1       2.305   0.934  -1.383  1.00  0.00    -0.176 NA
ATOM     12  C   UNL     1       3.380   0.283   0.707  1.00  0.00     0.065 C 
ATOM     13  C   UNL     1       1.101   0.495  -0.889  1.00  0.00     0.351 C 
ATOM     14  C   UNL     1       2.201  -0.131   1.169  1.00  0.00     0.097 C 
ATOM     15  O   UNL     1       0.081   0.568  -1.571  1.00  0.00    -0.246 OA
ATOM     16  H   UNL     1       5.208   1.728  -0.584  1.00  0.00     0.158 HD
ATOM     17  H   UNL     1       4.373   1.843  -2.049  1.00  0.00     0.158 HD
ENDBRANCH   1   8
BRANCH   3  18
ATOM     18  C   UNL     1      -2.690  -1.731  -1.373  1.00  0.00     0.191 C 
BRANCH  18  19
ATOM     19  O   UNL     1      -2.127  -1.021  -2.473  1.00  0.00    -0.394 OA
ATOM     20  H   UNL     1      -1.194  -0.806  -2.262  1.00  0.00     0.210 HD
ENDBRANCH  18  19
ENDBRANCH   3  18
BRANCH   4  21
ATOM     21  O   UNL     1      -3.697   0.619   0.595  1.00  0.00    -0.384 OA
ATOM     22  H   UNL     1      -3.703   1.570   0.811  1.00  0.00     0.211 HD
ENDBRANCH   4  21
TORSDOF 4
