REMARK SMILES C[C@H]1O[C@@H](O[C@H]2[C@@H](O)C[C@H](O[C@H]3[C@@H](O)C[C@H](O[C@H]4CC[C@@]5(C)[C@H](CC[C@@H]6[C@@H]5CC[C@]5(C)[C@@H](C7=CC(=O)OC7)[C@@H](O)C[C@]65O)C4)O[C@@H]3C)O[C@@H]2C)C[C@H](O)[C@@H]1O
REMARK SMILES IDX 11 1 10 2 6 3 7 4 49 5 9 6 48 7 50 8 5 9 4 10 2 11 3 12
REMARK SMILES IDX 54 13 52 14 51 15 1 16 55 17 53 19 8 21 12 23 13 24 46 25
REMARK SMILES IDX 15 26 45 27 16 28 47 29 14 30 17 32 18 33 19 34 44 35 20 36
REMARK SMILES IDX 23 37 21 38 24 39 27 40 25 41 26 42 28 43 42 44 29 45 41 46
REMARK SMILES IDX 30 47 39 48 32 49 22 50 31 51 43 52 40 54 33 56 34 57 38 58
REMARK SMILES IDX 35 59 37 60 36 61
REMARK H PARENT 55 18 53 20 8 22 14 31 43 53 40 55
ROOT
ATOM      1  O   UNL     1       4.505  -0.675   0.254  1.00  0.00    -0.344 OA
ENDROOT
BRANCH   1   2
ATOM      2  C   UNL     1       4.949  -1.912   0.801  1.00  0.00     0.253 C 
ATOM      3  C   UNL     1       7.415  -0.715   0.871  1.00  0.00     0.179 C 
ATOM      4  C   UNL     1       7.249  -1.775  -0.239  1.00  0.00     0.151 C 
ATOM      5  C   UNL     1       6.821  -1.264   2.189  1.00  0.00     0.150 C 
ATOM      6  C   UNL     1       5.948  -2.562  -0.140  1.00  0.00     0.096 C 
ATOM      7  O   UNL     1       5.460  -1.724   2.110  1.00  0.00    -0.347 OA
ATOM      8  C   UNL     1       6.880  -0.206   3.295  1.00  0.00     0.041 C 
BRANCH   3   9
ATOM      9  O   UNL     1       8.798  -0.388   1.107  1.00  0.00    -0.344 OA
BRANCH   9  10
ATOM     10  C   UNL     1       9.414   0.413   0.104  1.00  0.00     0.253 C 
ATOM     11  C   UNL     1      10.329   0.347  -2.083  1.00  0.00     0.149 C 
ATOM     12  O   UNL     1       9.684  -0.398  -1.041  1.00  0.00    -0.347 OA
ATOM     13  C   UNL     1      11.723   0.786  -1.609  1.00  0.00     0.172 C 
ATOM     14  C   UNL     1      11.589   1.614  -0.327  1.00  0.00     0.150 C 
ATOM     15  C   UNL     1      10.733   0.904   0.708  1.00  0.00     0.096 C 
ATOM     16  C   UNL     1      10.397  -0.550  -3.311  1.00  0.00     0.041 C 
BRANCH  13  17
ATOM     17  O   UNL     1      12.392   1.561  -2.603  1.00  0.00    -0.388 OA
ATOM     18  H   UNL     1      13.347   1.419  -2.487  1.00  0.00     0.211 HD
ENDBRANCH  13  17
BRANCH  14  19
ATOM     19  O   UNL     1      11.001   2.884  -0.633  1.00  0.00    -0.390 OA
ATOM     20  H   UNL     1      11.615   3.305  -1.262  1.00  0.00     0.211 HD
ENDBRANCH  14  19
ENDBRANCH   9  10
ENDBRANCH   3   9
BRANCH   4  21
ATOM     21  O   UNL     1       8.326  -2.727  -0.196  1.00  0.00    -0.390 OA
ATOM     22  H   UNL     1       9.138  -2.182  -0.133  1.00  0.00     0.211 HD
ENDBRANCH   4  21
ENDBRANCH   1   2
BRANCH   1  23
ATOM     23  C   UNL     1       3.262  -0.244   0.840  1.00  0.00     0.179 C 
ATOM     24  C   UNL     1       3.448   1.111   1.536  1.00  0.00     0.151 C 
ATOM     25  C   UNL     1       2.206  -0.161  -0.281  1.00  0.00     0.150 C 
ATOM     26  C   UNL     1       2.086   1.567   2.042  1.00  0.00     0.096 C 
ATOM     27  O   UNL     1       1.518   1.089  -0.326  1.00  0.00    -0.347 OA
ATOM     28  C   UNL     1       1.046   1.606   0.919  1.00  0.00     0.253 C 
ATOM     29  C   UNL     1       1.244  -1.350  -0.243  1.00  0.00     0.041 C 
BRANCH  24  30
ATOM     30  O   UNL     1       4.013   2.122   0.697  1.00  0.00    -0.390 OA
ATOM     31  H   UNL     1       3.806   1.887  -0.226  1.00  0.00     0.211 HD
ENDBRANCH  24  30
BRANCH  28  32
ATOM     32  O   UNL     1      -0.128   0.921   1.361  1.00  0.00    -0.349 OA
BRANCH  32  33
ATOM     33  C   UNL     1      -1.345   1.500   0.884  1.00  0.00     0.121 C 
ATOM     34  C   UNL     1      -1.495   1.356  -0.629  1.00  0.00     0.033 C 
ATOM     35  C   UNL     1      -2.511   0.871   1.656  1.00  0.00     0.036 C 
ATOM     36  C   UNL     1      -2.958   1.315  -1.038  1.00  0.00     0.010 C 
ATOM     37  C   UNL     1      -3.166  -0.329   0.933  1.00  0.00    -0.002 C 
ATOM     38  C   UNL     1      -3.689   0.050  -0.504  1.00  0.00    -0.026 C 
ATOM     39  C   UNL     1      -4.267  -0.884   1.863  1.00  0.00     0.005 C 
ATOM     40  C   UNL     1      -5.229   0.316  -0.425  1.00  0.00     0.001 C 
ATOM     41  C   UNL     1      -5.340  -1.697   1.163  1.00  0.00     0.007 C 
ATOM     42  C   UNL     1      -6.006  -0.957  -0.014  1.00  0.00     0.025 C 
ATOM     43  C   UNL     1      -5.857   0.931  -1.690  1.00  0.00     0.005 C 
ATOM     44  C   UNL     1      -7.519  -0.694   0.194  1.00  0.00     0.076 C 
ATOM     45  C   UNL     1      -7.345   1.229  -1.477  1.00  0.00     0.011 C 
ATOM     46  C   UNL     1      -7.847   0.264   1.351  1.00  0.00     0.068 C 
ATOM     47  C   UNL     1      -8.189  -0.013  -1.036  1.00  0.00     0.006 C 
ATOM     48  C   UNL     1      -9.277   0.743   1.065  1.00  0.00     0.125 C 
ATOM     49  C   UNL     1      -9.563   0.496  -0.458  1.00  0.00     0.056 C 
ATOM     50  C   UNL     1      -3.364  -1.119  -1.475  1.00  0.00     0.012 C 
ATOM     51  C   UNL     1      -8.319  -0.924  -2.274  1.00  0.00     0.015 C 
BRANCH  44  52
ATOM     52  O   UNL     1      -8.142  -1.958   0.452  1.00  0.00    -0.389 OA
ATOM     53  H   UNL     1      -8.976  -1.799   0.929  1.00  0.00     0.211 HD
ENDBRANCH  44  52
BRANCH  48  54
ATOM     54  O   UNL     1     -10.161   0.003   1.906  1.00  0.00    -0.392 OA
ATOM     55  H   UNL     1      -9.992   0.269   2.829  1.00  0.00     0.210 HD
ENDBRANCH  48  54
BRANCH  49  56
ATOM     56  C   UNL     1     -10.851  -0.269  -0.666  1.00  0.00    -0.019 C 
ATOM     57  C   UNL     1     -11.094  -1.570  -0.816  1.00  0.00     0.096 C 
ATOM     58  C   UNL     1     -12.141   0.469  -0.627  1.00  0.00     0.265 C 
ATOM     59  C   UNL     1     -12.543  -1.747  -0.886  1.00  0.00     0.331 C 
ATOM     60  O   UNL     1     -13.143  -0.532  -0.787  1.00  0.00    -0.458 OA
ATOM     61  O   UNL     1     -13.108  -2.818  -1.010  1.00  0.00    -0.247 OA
ENDBRANCH  49  56
ENDBRANCH  32  33
ENDBRANCH  28  32
ENDBRANCH   1  23
TORSDOF 13
