REMARK SMILES COc1ccc2c(c1)c(CC(=O)N[C@H]1C(O)O[C@H](CO)[C@@H](O)[C@@H]1O)c(C)n2C(=O)c1ccc(Cl)cc1
REMARK SMILES IDX 11 1 12 2 13 3 10 5 9 6 3 7 8 8 4 9 7 10 5 11 6 12 27 13
REMARK SMILES IDX 25 14 26 15 2 16 1 17 28 18 29 19 30 20 31 21 36 22 32 23
REMARK SMILES IDX 35 24 33 25 34 26 14 27 15 28 23 29 17 30 21 31 18 32 16 33
REMARK SMILES IDX 24 35 22 37 19 39 20 40
REMARK H PARENT 13 4 16 34 24 36 22 38 20 41
ROOT
ATOM      1  C   UNL     1       1.163  -1.186   0.432  1.00  0.00     0.224 C 
ATOM      2  O   UNL     1       1.223  -1.637   1.573  1.00  0.00    -0.275 OA
ATOM      3  N   UNL     1       2.109  -0.325  -0.075  1.00  0.00    -0.345 N 
ATOM      4  H   UNL     1       2.148  -0.167  -1.083  1.00  0.00     0.164 HD
ENDROOT
BRANCH   1   5
ATOM      5  C   UNL     1       0.033  -1.515  -0.531  1.00  0.00     0.138 C 
BRANCH   5   6
ATOM      6  C   UNL     1      -1.202  -0.725  -0.220  1.00  0.00    -0.009 A 
ATOM      7  C   UNL     1      -1.130   2.919  -1.395  1.00  0.00     0.119 A 
ATOM      8  C   UNL     1      -0.659   1.611  -1.244  1.00  0.00     0.057 A 
ATOM      9  C   UNL     1      -2.379   3.259  -0.891  1.00  0.00     0.048 A 
ATOM     10  C   UNL     1      -1.429   0.639  -0.564  1.00  0.00     0.008 A 
ATOM     11  C   UNL     1      -3.170   2.312  -0.227  1.00  0.00     0.031 A 
ATOM     12  C   UNL     1      -2.679   1.002  -0.060  1.00  0.00     0.057 A 
ATOM     13  N   UNL     1      -3.263  -0.136   0.510  1.00  0.00    -0.280 N 
ATOM     14  C   UNL     1      -2.304  -1.153   0.509  1.00  0.00     0.028 A 
ATOM     15  C   UNL     1      -2.445  -2.437   1.262  1.00  0.00     0.065 C 
BRANCH   7  16
ATOM     16  O   UNL     1      -0.273   3.758  -2.055  1.00  0.00    -0.497 OA
ATOM     17  C   UNL     1      -0.660   5.122  -2.155  1.00  0.00     0.278 C 
ENDBRANCH   7  16
BRANCH  13  18
ATOM     18  C   UNL     1      -4.596  -0.211   0.996  1.00  0.00     0.262 C 
ATOM     19  O   UNL     1      -5.140   0.827   1.372  1.00  0.00    -0.268 OA
BRANCH  18  20
ATOM     20  C   UNL     1      -5.414  -1.445   1.049  1.00  0.00     0.040 A 
ATOM     21  C   UNL     1      -6.220  -1.680   2.169  1.00  0.00     0.015 A 
ATOM     22  C   UNL     1      -5.446  -2.326  -0.038  1.00  0.00     0.015 A 
ATOM     23  C   UNL     1      -7.027  -2.819   2.219  1.00  0.00     0.021 A 
ATOM     24  C   UNL     1      -6.255  -3.464   0.017  1.00  0.00     0.021 A 
ATOM     25  C   UNL     1      -7.037  -3.708   1.145  1.00  0.00     0.041 A 
ATOM     26  Cl  UNL     1      -8.031  -5.109   1.206  1.00  0.00    -0.084 Cl
ENDBRANCH  18  20
ENDBRANCH  13  18
ENDBRANCH   5   6
ENDBRANCH   1   5
BRANCH   3  27
ATOM     27  C   UNL     1       3.310   0.046   0.672  1.00  0.00     0.169 C 
ATOM     28  C   UNL     1       4.389  -1.067   0.659  1.00  0.00     0.272 C 
ATOM     29  C   UNL     1       3.907   1.345   0.108  1.00  0.00     0.173 C 
ATOM     30  O   UNL     1       4.962  -1.259  -0.634  1.00  0.00    -0.342 OA
ATOM     31  C   UNL     1       4.545   1.098  -1.269  1.00  0.00     0.176 C 
ATOM     32  C   UNL     1       5.517  -0.095  -1.267  1.00  0.00     0.178 C 
BRANCH  28  33
ATOM     33  O   UNL     1       5.411  -0.857   1.625  1.00  0.00    -0.366 OA
ATOM     34  H   UNL     1       5.473   0.105   1.780  1.00  0.00     0.213 HD
ENDBRANCH  28  33
BRANCH  29  35
ATOM     35  O   UNL     1       4.872   1.877   1.024  1.00  0.00    -0.388 OA
ATOM     36  H   UNL     1       4.376   2.416   1.673  1.00  0.00     0.211 HD
ENDBRANCH  29  35
BRANCH  31  37
ATOM     37  O   UNL     1       3.478   0.832  -2.206  1.00  0.00    -0.388 OA
ATOM     38  H   UNL     1       3.884   0.750  -3.088  1.00  0.00     0.211 HD
ENDBRANCH  31  37
BRANCH  32  39
ATOM     39  C   UNL     1       6.913   0.248  -0.727  1.00  0.00     0.191 C 
BRANCH  39  40
ATOM     40  O   UNL     1       7.749  -0.907  -0.799  1.00  0.00    -0.394 OA
ATOM     41  H   UNL     1       7.255  -1.613  -0.332  1.00  0.00     0.210 HD
ENDBRANCH  39  40
ENDBRANCH  32  39
ENDBRANCH   3  27
TORSDOF 11
