REMARK SMILES N[C@@H](CCC(=O)O)C(=O)O
REMARK SMILES IDX 3 1 2 2 1 3 8 6 9 7 10 8 4 10 5 11 6 12 7 13
REMARK H PARENT 1 4 1 5 10 9 7 14
ROOT
ATOM      1  C   UNL     1      -0.320   0.278  -0.150  1.00  0.00     0.042 C 
ENDROOT
BRANCH   1   2
ATOM      2  C   UNL     1       1.106  -0.280  -0.175  1.00  0.00     0.162 C 
BRANCH   2   3
ATOM      3  N   UNL     1       1.393  -1.026   1.073  1.00  0.00    -0.318 NA
ATOM      4  H   UNL     1       1.285  -0.390   1.865  1.00  0.00     0.119 HD
ATOM      5  H   UNL     1       2.395  -1.244   1.066  1.00  0.00     0.119 HD
ENDBRANCH   2   3
BRANCH   2   6
ATOM      6  C   UNL     1       2.122   0.855  -0.382  1.00  0.00     0.320 C 
ATOM      7  O   UNL     1       1.979   1.846  -1.079  1.00  0.00    -0.251 OA
BRANCH   6   8
ATOM      8  O   UNL     1       3.288   0.653   0.274  1.00  0.00    -0.480 OA
ATOM      9  H   UNL     1       3.831   1.432   0.028  1.00  0.00     0.296 HD
ENDBRANCH   6   8
ENDBRANCH   2   6
ENDBRANCH   1   2
BRANCH   1  10
ATOM     10  C   UNL     1      -1.381  -0.814  -0.039  1.00  0.00     0.125 C 
BRANCH  10  11
ATOM     11  C   UNL     1      -2.759  -0.240  -0.186  1.00  0.00     0.303 C 
ATOM     12  O   UNL     1      -3.525  -0.433  -1.115  1.00  0.00    -0.252 OA
BRANCH  11  13
ATOM     13  O   UNL     1      -3.114   0.548   0.846  1.00  0.00    -0.481 OA
ATOM     14  H   UNL     1      -4.022   0.839   0.620  1.00  0.00     0.296 HD
ENDBRANCH  11  13
ENDBRANCH  10  11
ENDBRANCH   1  10
TORSDOF 7
