REMARK SMILES N[C@@H](CCC(=O)N[C@@H](CS)C(=O)NCC(=O)O)C(=O)O
REMARK SMILES IDX 5 1 6 2 7 3 4 5 3 6 2 7 1 8 18 11 19 12 20 13 8 15 9 16
REMARK SMILES IDX 10 17 11 19 12 20 13 21 14 23 15 24 16 25 17 26
REMARK H PARENT 7 4 1 9 1 10 20 14 10 18 13 22 17 27
ROOT
ATOM      1  C   UNL     1       0.676   0.539  -0.350  1.00  0.00     0.220 C 
ATOM      2  O   UNL     1       0.634   1.701  -0.736  1.00  0.00    -0.275 OA
ATOM      3  N   UNL     1      -0.405  -0.302  -0.393  1.00  0.00    -0.344 N 
ATOM      4  H   UNL     1      -0.340  -1.231   0.018  1.00  0.00     0.164 HD
ENDROOT
BRANCH   1   5
ATOM      5  C   UNL     1       1.923  -0.119   0.207  1.00  0.00     0.102 C 
BRANCH   5   6
ATOM      6  C   UNL     1       3.109   0.848   0.250  1.00  0.00     0.040 C 
BRANCH   6   7
ATOM      7  C   UNL     1       4.345   0.234   0.915  1.00  0.00     0.162 C 
BRANCH   7   8
ATOM      8  N   UNL     1       5.396   1.261   1.101  1.00  0.00    -0.318 NA
ATOM      9  H   UNL     1       5.816   1.446   0.186  1.00  0.00     0.119 HD
ATOM     10  H   UNL     1       4.975   2.137   1.404  1.00  0.00     0.119 HD
ENDBRANCH   7   8
BRANCH   7  11
ATOM     11  C   UNL     1       4.891  -0.925   0.072  1.00  0.00     0.320 C 
ATOM     12  O   UNL     1       4.550  -2.095   0.154  1.00  0.00    -0.251 OA
BRANCH  11  13
ATOM     13  O   UNL     1       5.770  -0.536  -0.879  1.00  0.00    -0.480 OA
ATOM     14  H   UNL     1       6.032  -1.374  -1.315  1.00  0.00     0.296 HD
ENDBRANCH  11  13
ENDBRANCH   7  11
ENDBRANCH   6   7
ENDBRANCH   5   6
ENDBRANCH   1   5
BRANCH   3  15
ATOM     15  C   UNL     1      -1.738   0.119  -0.831  1.00  0.00     0.181 C 
BRANCH  15  16
ATOM     16  C   UNL     1      -1.922   0.009  -2.351  1.00  0.00     0.101 C 
BRANCH  16  17
ATOM     17  S   UNL     1      -1.412   1.512  -3.249  1.00  0.00    -0.177 SA
ATOM     18  H   UNL     1      -0.291   1.745  -2.539  1.00  0.00     0.102 HD
ENDBRANCH  16  17
ENDBRANCH  15  16
BRANCH  15  19
ATOM     19  C   UNL     1      -2.748  -0.808  -0.130  1.00  0.00     0.243 C 
ATOM     20  O   UNL     1      -2.407  -1.866   0.398  1.00  0.00    -0.273 OA
ATOM     21  N   UNL     1      -4.057  -0.373  -0.168  1.00  0.00    -0.343 N 
ATOM     22  H   UNL     1      -4.205   0.622  -0.295  1.00  0.00     0.164 HD
BRANCH  21  23
ATOM     23  C   UNL     1      -5.080  -1.063   0.610  1.00  0.00     0.238 C 
BRANCH  23  24
ATOM     24  C   UNL     1      -5.242  -0.485   2.010  1.00  0.00     0.322 C 
ATOM     25  O   UNL     1      -5.958  -0.934   2.891  1.00  0.00    -0.250 OA
BRANCH  24  26
ATOM     26  O   UNL     1      -4.560   0.665   2.212  1.00  0.00    -0.480 OA
ATOM     27  H   UNL     1      -4.766   0.897   3.143  1.00  0.00     0.296 HD
ENDBRANCH  24  26
ENDBRANCH  23  24
ENDBRANCH  21  23
ENDBRANCH  15  19
ENDBRANCH   3  15
TORSDOF 13
