REMARK SMILES CC(C)(C)c1nnc(NS(=O)(=O)c2ccc(N)cc2)s1
REMARK SMILES IDX 10 1 11 2 12 3 9 4 8 6 5 7 6 8 20 9 7 10 2 11 1 12 3 13 4 14
REMARK SMILES IDX 13 15 14 16 19 17 15 18 18 19 16 20 17 21
REMARK H PARENT 9 5 17 22 17 23
ROOT
ATOM      1  S   UNL     1       1.599  -0.904   2.020  1.00  0.00     0.263 S 
ATOM      2  O   UNL     1       0.778   0.172   2.529  1.00  0.00    -0.201 OA
ATOM      3  O   UNL     1       2.114  -1.918   2.920  1.00  0.00    -0.201 OA
ENDROOT
BRANCH   1   4
ATOM      4  N   UNL     1       0.792  -1.762   0.821  1.00  0.00    -0.253 N 
ATOM      5  H   UNL     1       0.623  -2.715   1.131  1.00  0.00     0.182 HD
BRANCH   4   6
ATOM      6  C   UNL     1      -0.372  -1.066   0.323  1.00  0.00     0.219 A 
ATOM      7  C   UNL     1      -2.505  -0.274  -0.353  1.00  0.00     0.124 A 
ATOM      8  N   UNL     1      -1.516   0.474  -0.807  1.00  0.00    -0.141 NA
ATOM      9  S   UNL     1      -1.959  -1.635   0.566  1.00  0.00    -0.078 S 
ATOM     10  N   UNL     1      -0.276   0.006  -0.423  1.00  0.00    -0.119 NA
BRANCH   7  11
ATOM     11  C   UNL     1      -3.982  -0.001  -0.603  1.00  0.00     0.016 C 
ATOM     12  C   UNL     1      -4.142   1.283  -1.445  1.00  0.00     0.018 C 
ATOM     13  C   UNL     1      -4.624  -1.164  -1.382  1.00  0.00     0.018 C 
ATOM     14  C   UNL     1      -4.728   0.208   0.727  1.00  0.00     0.018 C 
ENDBRANCH   7  11
ENDBRANCH   4   6
ENDBRANCH   1   4
BRANCH   1  15
ATOM     15  C   UNL     1       2.972  -0.220   1.132  1.00  0.00     0.088 A 
ATOM     16  C   UNL     1       2.828   1.009   0.486  1.00  0.00     0.024 A 
ATOM     17  C   UNL     1       4.206  -0.873   1.140  1.00  0.00     0.024 A 
ATOM     18  C   UNL     1       3.918   1.563  -0.190  1.00  0.00     0.027 A 
ATOM     19  C   UNL     1       5.288  -0.307   0.460  1.00  0.00     0.027 A 
ATOM     20  C   UNL     1       5.141   0.887  -0.253  1.00  0.00     0.031 A 
BRANCH  20  21
ATOM     21  N   UNL     1       6.256   1.504  -0.829  1.00  0.00    -0.399 N 
ATOM     22  H   UNL     1       6.026   2.171  -1.560  1.00  0.00     0.156 HD
ATOM     23  H   UNL     1       6.986   0.858  -1.113  1.00  0.00     0.156 HD
ENDBRANCH  20  21
ENDBRANCH   1  15
TORSDOF 5
