REMARK SMILES OCC(O)CO
REMARK SMILES IDX 3 1 2 2 1 3 4 5 5 7 6 8
REMARK H PARENT 1 4 4 6 6 9
ROOT
ATOM      1  C   UNL     1       0.033  -0.059  -0.390  1.00  0.00     0.165 C 
ENDROOT
BRANCH   1   2
ATOM      2  C   UNL     1      -1.324   0.252   0.245  1.00  0.00     0.190 C 
BRANCH   2   3
ATOM      3  O   UNL     1      -1.738  -0.771   1.139  1.00  0.00    -0.394 OA
ATOM      4  H   UNL     1      -1.884  -1.583   0.623  1.00  0.00     0.210 HD
ENDBRANCH   2   3
ENDBRANCH   1   2
BRANCH   1   5
ATOM      5  O   UNL     1       0.373   0.938  -1.365  1.00  0.00    -0.388 OA
ATOM      6  H   UNL     1      -0.296   0.896  -2.071  1.00  0.00     0.211 HD
ENDBRANCH   1   5
BRANCH   1   7
ATOM      7  C   UNL     1       1.153  -0.100   0.654  1.00  0.00     0.190 C 
BRANCH   7   8
ATOM      8  O   UNL     1       2.395  -0.365  -0.004  1.00  0.00    -0.394 OA
ATOM      9  H   UNL     1       2.421   0.266  -0.751  1.00  0.00     0.210 HD
ENDBRANCH   7   8
ENDBRANCH   1   7
TORSDOF 5
