REMARK SMILES O=[N+]([O-])OCC(CO[N+](=O)[O-])O[N+](=O)[O-]
REMARK SMILES IDX 6 1 5 2 4 3 2 4 1 5 3 6 7 7 8 8 9 9 10 10 11 11 12 12 13 13
REMARK SMILES IDX 14 14 15 15
REMARK H PARENT
ROOT
ATOM      1  C   UNL     1      -0.045   0.139   0.214  1.00  0.00     0.218 C 
ENDROOT
BRANCH   1   2
ATOM      2  C   UNL     1      -1.262  -0.776   0.020  1.00  0.00     0.241 C 
BRANCH   2   3
ATOM      3  O   UNL     1      -2.336  -0.256   0.807  1.00  0.00    -0.311 OA
BRANCH   3   4
ATOM      4  N   UNL     1      -3.516  -1.031   0.692  1.00  0.00     0.294 N 
ATOM      5  O   UNL     1      -3.464  -2.023  -0.036  1.00  0.00    -0.109 OA
ATOM      6  O   UNL     1      -4.444  -0.587   1.363  1.00  0.00    -0.109 OA
ENDBRANCH   3   4
ENDBRANCH   2   3
ENDBRANCH   1   2
BRANCH   1   7
ATOM      7  C   UNL     1       1.176  -0.464  -0.493  1.00  0.00     0.241 C 
BRANCH   7   8
ATOM      8  O   UNL     1       2.327   0.323  -0.191  1.00  0.00    -0.311 OA
BRANCH   8   9
ATOM      9  N   UNL     1       3.504  -0.182  -0.797  1.00  0.00     0.294 N 
ATOM     10  O   UNL     1       3.388  -1.202  -1.479  1.00  0.00    -0.109 OA
ATOM     11  O   UNL     1       4.499   0.493  -0.546  1.00  0.00    -0.109 OA
ENDBRANCH   8   9
ENDBRANCH   7   8
ENDBRANCH   1   7
BRANCH   1  12
ATOM     12  O   UNL     1      -0.371   1.391  -0.407  1.00  0.00    -0.306 OA
BRANCH  12  13
ATOM     13  N   UNL     1       0.103   2.535   0.280  1.00  0.00     0.294 N 
ATOM     14  O   UNL     1       0.742   2.351   1.315  1.00  0.00    -0.109 OA
ATOM     15  O   UNL     1      -0.201   3.581  -0.286  1.00  0.00    -0.109 OA
ENDBRANCH  12  13
ENDBRANCH   1  12
TORSDOF 8
