REMARK SMILES O=C(N/N=C/[C@H](O)[C@H]1OC(=O)[C@@H](O)[C@H]1O)c1ccncc1
REMARK SMILES IDX 6 1 7 2 5 4 4 5 3 6 2 7 1 8 16 10 17 11 21 12 18 13 20 14
REMARK SMILES IDX 19 15 8 16 9 17 14 18 10 19 12 20 11 21 15 22 13 24
REMARK H PARENT 7 3 3 9 15 23 13 25
ROOT
ATOM      1  C   UNL     1       1.822  -0.768  -1.559  1.00  0.00     0.201 C 
ENDROOT
BRANCH   1   2
ATOM      2  O   UNL     1       1.612  -1.913  -2.394  1.00  0.00    -0.383 OA
ATOM      3  H   UNL     1       0.798  -1.735  -2.901  1.00  0.00     0.211 HD
ENDBRANCH   1   2
BRANCH   1   4
ATOM      4  C   UNL     1       0.490  -0.114  -1.235  1.00  0.00     0.141 C 
ATOM      5  N   UNL     1      -0.608  -0.551  -1.770  1.00  0.00    -0.183 NA
BRANCH   5   6
ATOM      6  N   UNL     1      -1.769   0.046  -1.345  1.00  0.00    -0.243 N 
ATOM      7  C   UNL     1      -2.057   0.225   0.009  1.00  0.00     0.271 C 
ATOM      8  O   UNL     1      -1.281   0.021   0.940  1.00  0.00    -0.267 OA
ATOM      9  H   UNL     1      -2.560  -0.128  -1.962  1.00  0.00     0.194 HD
BRANCH   7  10
ATOM     10  C   UNL     1      -3.452   0.642   0.298  1.00  0.00     0.044 A 
ATOM     11  C   UNL     1      -4.135   1.521  -0.540  1.00  0.00     0.034 A 
ATOM     12  C   UNL     1      -4.077   0.144   1.441  1.00  0.00     0.034 A 
ATOM     13  C   UNL     1      -5.435   1.850  -0.199  1.00  0.00     0.112 A 
ATOM     14  C   UNL     1      -5.382   0.525   1.688  1.00  0.00     0.112 A 
ATOM     15  N   UNL     1      -6.075   1.361   0.886  1.00  0.00    -0.265 NA
ENDBRANCH   7  10
ENDBRANCH   5   6
ENDBRANCH   1   4
BRANCH   1  16
ATOM     16  C   UNL     1       2.538  -1.216  -0.278  1.00  0.00     0.242 C 
ATOM     17  O   UNL     1       3.875  -1.661  -0.617  1.00  0.00    -0.454 OA
ATOM     18  C   UNL     1       2.748  -0.124   0.765  1.00  0.00     0.198 C 
ATOM     19  C   UNL     1       4.757  -1.230   0.329  1.00  0.00     0.338 C 
ATOM     20  C   UNL     1       4.013  -0.570   1.470  1.00  0.00     0.256 C 
ATOM     21  O   UNL     1       5.972  -1.375   0.280  1.00  0.00    -0.249 OA
BRANCH  18  22
ATOM     22  O   UNL     1       2.961   1.160   0.159  1.00  0.00    -0.386 OA
ATOM     23  H   UNL     1       3.458   1.677   0.831  1.00  0.00     0.211 HD
ENDBRANCH  18  22
BRANCH  20  24
ATOM     24  O   UNL     1       4.667   0.539   2.073  1.00  0.00    -0.379 OA
ATOM     25  H   UNL     1       5.605   0.275   2.178  1.00  0.00     0.211 HD
ENDBRANCH  20  24
ENDBRANCH   1  16
TORSDOF 7
