REMARK SMILES O=C(NC1CCCCC1)NS(=O)(=O)c1ccc2c(c1)CCC2
REMARK SMILES IDX 1 1 2 2 3 3 10 4 4 7 5 8 9 9 6 10 8 11 7 12 11 13 12 14
REMARK SMILES IDX 13 15 14 16 19 17 15 18 18 19 16 20 17 21 20 22 22 23 21 24
REMARK H PARENT 3 5 10 6
ROOT
ATOM      1  O   UNL     1      -0.461  -1.363   1.650  1.00  0.00    -0.248 OA
ATOM      2  C   UNL     1      -0.846  -1.743   0.557  1.00  0.00     0.328 C 
ATOM      3  N   UNL     1      -2.073  -1.449   0.035  1.00  0.00    -0.335 N 
ATOM      4  N   UNL     1      -0.077  -2.495  -0.312  1.00  0.00    -0.231 N 
ATOM      5  H   UNL     1      -2.238  -1.667  -0.934  1.00  0.00     0.165 HD
ATOM      6  H   UNL     1      -0.419  -2.786  -1.216  1.00  0.00     0.185 HD
ENDROOT
BRANCH   3   7
ATOM      7  C   UNL     1      -3.000  -0.548   0.710  1.00  0.00     0.083 C 
ATOM      8  C   UNL     1      -2.633   0.924   0.442  1.00  0.00     0.025 C 
ATOM      9  C   UNL     1      -4.444  -0.887   0.303  1.00  0.00     0.025 C 
ATOM     10  C   UNL     1      -3.408   1.496  -0.740  1.00  0.00     0.002 C 
ATOM     11  C   UNL     1      -5.364   0.321   0.420  1.00  0.00     0.002 C 
ATOM     12  C   UNL     1      -4.919   1.460  -0.500  1.00  0.00     0.000 C 
ENDBRANCH   3   7
BRANCH   4  13
ATOM     13  S   UNL     1       1.463  -3.033  -0.001  1.00  0.00     0.265 S 
ATOM     14  O   UNL     1       1.500  -3.712   1.274  1.00  0.00    -0.201 OA
ATOM     15  O   UNL     1       1.870  -3.720  -1.212  1.00  0.00    -0.201 OA
BRANCH  13  16
ATOM     16  C   UNL     1       2.408  -1.533   0.099  1.00  0.00     0.088 A 
ATOM     17  C   UNL     1       2.944  -0.982  -1.072  1.00  0.00     0.026 A 
ATOM     18  C   UNL     1       2.656  -0.954   1.357  1.00  0.00     0.022 A 
ATOM     19  C   UNL     1       3.695   0.176  -0.956  1.00  0.00    -0.043 A 
ATOM     20  C   UNL     1       3.425   0.207   1.457  1.00  0.00     0.005 A 
ATOM     21  C   UNL     1       3.930   0.763   0.293  1.00  0.00    -0.045 A 
ATOM     22  C   UNL     1       4.400   0.931  -2.040  1.00  0.00     0.036 C 
ATOM     23  C   UNL     1       4.809   1.968   0.157  1.00  0.00     0.036 C 
ATOM     24  C   UNL     1       4.668   2.272  -1.341  1.00  0.00     0.010 C 
ENDBRANCH  13  16
ENDBRANCH   4  13
TORSDOF 3
