REMARK SMILES O=C(NN1CCCCCC1)NS(=O)(=O)c1ccc(Cl)cc1
REMARK SMILES IDX 11 1 2 2 1 3 3 4 12 7 13 8 14 9 15 10 18 11 17 12 20 13
REMARK SMILES IDX 16 14 21 15 19 16 4 17 5 18 6 19 7 20 10 22 9 23 8 24
REMARK H PARENT 11 5 3 6
REMARK Flexibility Score:   21.900
ROOT
ATOM      1  N   UNL     1       1.523  -0.208  -0.435  1.00  0.00    -0.230 N 
ATOM      2  C   UNL     1       0.165  -0.264  -0.740  1.00  0.00     0.343 C 
ATOM      3  O   UNL     1      -0.255  -0.606  -1.834  1.00  0.00    -0.246 OA
ATOM      4  N   UNL     1      -0.624   0.103   0.335  1.00  0.00    -0.270 N 
ATOM      5  H   UNL     1       1.840   0.080   0.478  1.00  0.00     0.185 HD
ATOM      6  H   UNL     1      -0.201   0.374   1.211  1.00  0.00     0.187 HD
ENDROOT
BRANCH   1   7
ATOM      7  S   UNL     1       2.698  -0.605  -1.546  1.00  0.00     0.265 S 
ATOM      8  O   UNL     1       2.650  -2.026  -1.808  1.00  0.00    -0.201 OA
ATOM      9  O   UNL     1       2.722   0.388  -2.596  1.00  0.00    -0.201 OA
BRANCH   7  10
ATOM     10  C   UNL     1       4.160  -0.326  -0.555  1.00  0.00     0.088 A 
ATOM     11  C   UNL     1       6.440   0.105   0.972  1.00  0.00     0.041 A 
ATOM     12  C   UNL     1       5.908   1.150   0.215  1.00  0.00     0.022 A 
ATOM     13  C   UNL     1       5.843  -1.157   0.962  1.00  0.00     0.022 A 
ATOM     14  C   UNL     1       4.764   0.936  -0.557  1.00  0.00     0.024 A 
ATOM     15  C   UNL     1       4.699  -1.378   0.193  1.00  0.00     0.024 A 
ATOM     16  Cl  UNL     1       7.847   0.374   1.926  1.00  0.00    -0.084 Cl
ENDBRANCH   7  10
ENDBRANCH   1   7
BRANCH   4  17
ATOM     17  N   UNL     1      -2.027   0.128   0.216  1.00  0.00    -0.220 NA
BRANCH  17  18
ATOM     18  C   UNL     1      -2.639  -0.998   0.927  1.00  0.00     0.108 C 
BRANCH  18  19
ATOM     19  C   UNL     1      -4.166  -0.988   1.016  1.00  0.00     0.018 C 
BRANCH  19  20
ATOM     20  C   UNL     1      -4.885  -0.704  -0.303  1.00  0.00     0.001 CG0
ATOM     21  G   UNL     1      -4.518   0.617  -0.989  1.00  0.00     0.000 G0
ENDBRANCH  19  20
ENDBRANCH  18  19
ENDBRANCH  17  18
BRANCH  17  22
ATOM     22  C   UNL     1      -2.582   1.448   0.516  1.00  0.00     0.108 C 
BRANCH  22  23
ATOM     23  C   UNL     1      -3.999   1.696  -0.037  1.00  0.00     0.018 C 
BRANCH  23  24
ATOM     24  C   UNL     1      -4.518   0.617  -0.989  1.00  0.00     0.001 CG0
ATOM     25  G   UNL     1      -4.885  -0.704  -0.303  1.00  0.00     0.000 G0
ENDBRANCH  23  24
ENDBRANCH  22  23
ENDBRANCH  17  22
ENDBRANCH   4  17
TORSDOF 3
