REMARK SMILES CC(C)C[C@H](NC(=O)CNC(=O)[C@H](Cc1ccc(O)cc1)NC(=O)[C@H](CO)NC(=O)[C@H](Cc1c[nH]c2ccccc12)NC(=O)[C@H](Cc1c[nH]cn1)NC(=O)[C@@H]1CCC(=O)N1)C(=O)N[C@@H](CCCNC(=N)N)C(=O)N1CCC[C@H]1C(=O)NCC(N)=O
REMARK SMILES IDX 10 1 11 2 12 3 9 5 7 6 6 7 8 8 5 10 4 11 2 12 1 13 3 14
REMARK SMILES IDX 61 15 62 16 63 17 64 19 65 20 66 21 67 22 68 23 69 24 71 25
REMARK SMILES IDX 70 26 72 31 73 32 74 33 75 34 78 35 76 36 77 37 79 38 80 39
REMARK SMILES IDX 81 40 82 42 83 43 84 44 85 45 13 48 14 49 15 50 16 51 21 52
REMARK SMILES IDX 17 53 20 54 18 55 19 56 22 58 23 59 24 60 25 62 26 63 27 64
REMARK SMILES IDX 28 66 29 67 30 68 31 70 32 71 33 72 34 73 41 74 35 75 36 76
REMARK SMILES IDX 40 77 37 78 39 79 38 80 42 82 43 83 44 84 45 86 46 87 47 88
REMARK SMILES IDX 48 89 51 90 49 91 50 92 52 94 53 95 54 96 55 98 56 99 60 100
REMARK SMILES IDX 57 101 58 102 59 103
REMARK H PARENT 10 4 6 9 63 18 68 27 71 28 71 29 70 30 81 41 84 46 84 47 19 57
REMARK H PARENT 22 61 27 65 28 69 35 81 42 85 49 93 52 97 60 104
ROOT
ATOM      1  N   UNL     1       0.731  -1.021   0.191  1.00  0.00    -0.345 N 
ATOM      2  C   UNL     1       0.136   0.218   0.133  1.00  0.00     0.243 C 
ATOM      3  O   UNL     1       0.728   1.234   0.545  1.00  0.00    -0.273 OA
ATOM      4  H   UNL     1       0.283  -1.790  -0.309  1.00  0.00     0.164 HD
ENDROOT
BRANCH   1   5
ATOM      5  C   UNL     1       2.152  -1.109   0.403  1.00  0.00     0.216 C 
BRANCH   5   6
ATOM      6  C   UNL     1       2.816  -1.258  -0.946  1.00  0.00     0.240 C 
ATOM      7  N   UNL     1       3.242  -0.060  -1.509  1.00  0.00    -0.343 N 
ATOM      8  O   UNL     1       2.906  -2.331  -1.544  1.00  0.00    -0.273 OA
ATOM      9  H   UNL     1       3.100   0.762  -0.925  1.00  0.00     0.164 HD
BRANCH   7  10
ATOM     10  C   UNL     1       4.546  -0.070  -2.152  1.00  0.00     0.171 C 
BRANCH  10  11
ATOM     11  C   UNL     1       4.663   0.808  -3.389  1.00  0.00     0.038 C 
BRANCH  11  12
ATOM     12  C   UNL     1       4.365   2.306  -3.255  1.00  0.00    -0.015 C 
ATOM     13  C   UNL     1       2.891   2.629  -3.036  1.00  0.00     0.007 C 
ATOM     14  C   UNL     1       4.824   2.986  -4.552  1.00  0.00     0.007 C 
ENDBRANCH  11  12
ENDBRANCH  10  11
BRANCH  10  15
ATOM     15  C   UNL     1       5.587   0.296  -1.083  1.00  0.00     0.243 C 
ATOM     16  O   UNL     1       5.262   0.835  -0.014  1.00  0.00    -0.273 OA
ATOM     17  N   UNL     1       6.887  -0.020  -1.369  1.00  0.00    -0.343 N 
ATOM     18  H   UNL     1       7.124  -0.403  -2.281  1.00  0.00     0.164 HD
BRANCH  17  19
ATOM     19  C   UNL     1       7.990   0.151  -0.435  1.00  0.00     0.171 C 
BRANCH  19  20
ATOM     20  C   UNL     1       8.269  -1.154   0.345  1.00  0.00     0.037 C 
BRANCH  20  21
ATOM     21  C   UNL     1       7.030  -1.823   0.945  1.00  0.00     0.024 C 
BRANCH  21  22
ATOM     22  C   UNL     1       7.374  -3.159   1.587  1.00  0.00     0.116 C 
BRANCH  22  23
ATOM     23  N   UNL     1       7.809  -2.990   2.959  1.00  0.00    -0.357 N 
ATOM     24  C   UNL     1       6.923  -3.030   3.979  1.00  0.00     0.185 C 
ATOM     25  N   UNL     1       7.514  -3.010   5.200  1.00  0.00    -0.370 N 
ATOM     26  N   UNL     1       5.647  -2.999   3.843  1.00  0.00    -0.270 NA
ATOM     27  H   UNL     1       8.705  -3.449   3.117  1.00  0.00     0.163 HD
ATOM     28  H   UNL     1       8.055  -3.867   5.324  1.00  0.00     0.159 HD
ATOM     29  H   UNL     1       8.224  -2.274   5.183  1.00  0.00     0.159 HD
ATOM     30  H   UNL     1       5.246  -2.955   4.792  1.00  0.00     0.191 HD
ENDBRANCH  22  23
ENDBRANCH  21  22
ENDBRANCH  20  21
ENDBRANCH  19  20
BRANCH  19  31
ATOM     31  C   UNL     1       9.224   0.497  -1.290  1.00  0.00     0.245 C 
ATOM     32  O   UNL     1       9.216   0.284  -2.512  1.00  0.00    -0.272 OA
BRANCH  31  33
ATOM     33  N   UNL     1      10.362   0.976  -0.682  1.00  0.00    -0.329 N 
ATOM     34  C   UNL     1      10.541   1.464   0.668  1.00  0.00     0.120 C 
ATOM     35  C   UNL     1      11.596   1.115  -1.455  1.00  0.00     0.174 C 
ATOM     36  C   UNL     1      11.637   2.507   0.502  1.00  0.00     0.024 C 
ATOM     37  C   UNL     1      12.551   1.868  -0.535  1.00  0.00     0.037 C 
BRANCH  35  38
ATOM     38  C   UNL     1      12.140  -0.274  -1.798  1.00  0.00     0.243 C 
ATOM     39  O   UNL     1      11.832  -1.298  -1.175  1.00  0.00    -0.273 OA
ATOM     40  N   UNL     1      13.082  -0.320  -2.810  1.00  0.00    -0.345 N 
ATOM     41  H   UNL     1      13.203   0.515  -3.367  1.00  0.00     0.164 HD
BRANCH  40  42
ATOM     42  C   UNL     1      13.304  -1.577  -3.512  1.00  0.00     0.215 C 
BRANCH  42  43
ATOM     43  C   UNL     1      14.004  -2.706  -2.754  1.00  0.00     0.236 C 
ATOM     44  N   UNL     1      14.282  -2.522  -1.437  1.00  0.00    -0.368 N 
ATOM     45  O   UNL     1      14.308  -3.784  -3.275  1.00  0.00    -0.273 OA
ATOM     46  H   UNL     1      14.476  -3.375  -0.924  1.00  0.00     0.159 HD
ATOM     47  H   UNL     1      13.674  -1.884  -0.927  1.00  0.00     0.159 HD
ENDBRANCH  42  43
ENDBRANCH  40  42
ENDBRANCH  35  38
ENDBRANCH  31  33
ENDBRANCH  19  31
ENDBRANCH  17  19
ENDBRANCH  10  15
ENDBRANCH   7  10
ENDBRANCH   5   6
ENDBRANCH   1   5
BRANCH   2  48
ATOM     48  C   UNL     1      -1.262   0.272  -0.460  1.00  0.00     0.175 C 
BRANCH  48  49
ATOM     49  C   UNL     1      -1.169   0.306  -1.991  1.00  0.00     0.070 C 
BRANCH  49  50
ATOM     50  C   UNL     1      -2.513   0.405  -2.675  1.00  0.00    -0.045 A 
ATOM     51  C   UNL     1      -3.097   1.652  -2.941  1.00  0.00     0.007 A 
ATOM     52  C   UNL     1      -3.242  -0.755  -2.978  1.00  0.00     0.007 A 
ATOM     53  C   UNL     1      -4.394   1.736  -3.465  1.00  0.00     0.046 A 
ATOM     54  C   UNL     1      -4.531  -0.675  -3.510  1.00  0.00     0.046 A 
ATOM     55  C   UNL     1      -5.100   0.574  -3.739  1.00  0.00     0.115 A 
BRANCH  55  56
ATOM     56  O   UNL     1      -6.377   0.694  -4.217  1.00  0.00    -0.508 OA
ATOM     57  H   UNL     1      -6.705  -0.200  -4.428  1.00  0.00     0.293 HD
ENDBRANCH  55  56
ENDBRANCH  49  50
ENDBRANCH  48  49
BRANCH  48  58
ATOM     58  N   UNL     1      -1.936   1.433   0.116  1.00  0.00    -0.342 N 
ATOM     59  C   UNL     1      -3.223   1.306   0.590  1.00  0.00     0.245 C 
ATOM     60  O   UNL     1      -3.911   0.335   0.262  1.00  0.00    -0.273 OA
ATOM     61  H   UNL     1      -1.337   2.151   0.523  1.00  0.00     0.164 HD
BRANCH  59  62
ATOM     62  C   UNL     1      -3.737   2.413   1.514  1.00  0.00     0.197 C 
BRANCH  62  63
ATOM     63  C   UNL     1      -2.782   2.586   2.701  1.00  0.00     0.191 C 
BRANCH  63  64
ATOM     64  O   UNL     1      -1.573   3.236   2.288  1.00  0.00    -0.394 OA
ATOM     65  H   UNL     1      -0.997   3.232   3.079  1.00  0.00     0.210 HD
ENDBRANCH  63  64
ENDBRANCH  62  63
BRANCH  62  66
ATOM     66  N   UNL     1      -5.117   2.062   1.854  1.00  0.00    -0.340 N 
ATOM     67  C   UNL     1      -5.422   1.211   2.906  1.00  0.00     0.243 C 
ATOM     68  O   UNL     1      -4.679   1.092   3.871  1.00  0.00    -0.273 OA
ATOM     69  H   UNL     1      -5.768   2.038   1.077  1.00  0.00     0.164 HD
BRANCH  67  70
ATOM     70  C   UNL     1      -6.681   0.344   2.723  1.00  0.00     0.175 C 
BRANCH  70  71
ATOM     71  C   UNL     1      -6.334  -0.997   2.063  1.00  0.00     0.072 C 
BRANCH  71  72
ATOM     72  C   UNL     1      -5.409  -1.873   2.841  1.00  0.00    -0.020 A 
ATOM     73  C   UNL     1      -4.080  -2.122   2.543  1.00  0.00     0.087 A 
ATOM     74  C   UNL     1      -5.737  -2.647   3.993  1.00  0.00     0.003 A 
ATOM     75  N   UNL     1      -3.603  -2.998   3.473  1.00  0.00    -0.361 N 
ATOM     76  C   UNL     1      -4.597  -3.370   4.339  1.00  0.00     0.046 A 
ATOM     77  C   UNL     1      -6.911  -2.825   4.752  1.00  0.00     0.010 A 
ATOM     78  C   UNL     1      -4.578  -4.292   5.386  1.00  0.00     0.026 A 
ATOM     79  C   UNL     1      -6.905  -3.732   5.821  1.00  0.00     0.001 A 
ATOM     80  C   UNL     1      -5.756  -4.457   6.128  1.00  0.00     0.002 A 
ATOM     81  H   UNL     1      -2.663  -3.369   3.493  1.00  0.00     0.166 HD
ENDBRANCH  71  72
ENDBRANCH  70  71
BRANCH  70  82
ATOM     82  N   UNL     1      -7.675   1.046   1.902  1.00  0.00    -0.342 N 
ATOM     83  C   UNL     1      -8.654   1.842   2.466  1.00  0.00     0.243 C 
ATOM     84  O   UNL     1      -8.645   2.124   3.665  1.00  0.00    -0.273 OA
ATOM     85  H   UNL     1      -7.828   0.726   0.955  1.00  0.00     0.164 HD
BRANCH  83  86
ATOM     86  C   UNL     1      -9.730   2.357   1.502  1.00  0.00     0.177 C 
BRANCH  86  87
ATOM     87  C   UNL     1     -11.113   1.986   2.055  1.00  0.00     0.093 C 
BRANCH  87  88
ATOM     88  C   UNL     1     -11.456   0.545   1.912  1.00  0.00     0.061 A 
ATOM     89  C   UNL     1     -12.650  -0.011   1.497  1.00  0.00     0.107 A 
ATOM     90  N   UNL     1     -10.532  -0.453   2.143  1.00  0.00    -0.242 NA
ATOM     91  N   UNL     1     -12.458  -1.364   1.544  1.00  0.00    -0.351 N 
ATOM     92  C   UNL     1     -11.167  -1.583   1.933  1.00  0.00     0.196 A 
ATOM     93  H   UNL     1     -13.142  -2.075   1.333  1.00  0.00     0.167 HD
ENDBRANCH  87  88
ENDBRANCH  86  87
BRANCH  86  94
ATOM     94  N   UNL     1      -9.553   1.956   0.105  1.00  0.00    -0.342 N 
ATOM     95  C   UNL     1      -9.938   2.779  -0.936  1.00  0.00     0.243 C 
ATOM     96  O   UNL     1     -10.333   3.932  -0.749  1.00  0.00    -0.273 OA
ATOM     97  H   UNL     1      -9.550   0.959  -0.093  1.00  0.00     0.164 HD
BRANCH  95  98
ATOM     98  C   UNL     1      -9.889   2.157  -2.334  1.00  0.00     0.171 C 
ATOM     99  C   UNL     1     -11.296   1.986  -2.894  1.00  0.00     0.045 C 
ATOM    100  N   UNL     1      -9.345   0.825  -2.380  1.00  0.00    -0.344 N 
ATOM    101  C   UNL     1     -11.644   0.543  -2.560  1.00  0.00     0.102 C 
ATOM    102  C   UNL     1     -10.306  -0.112  -2.666  1.00  0.00     0.220 C 
ATOM    103  O   UNL     1     -10.089  -1.287  -2.958  1.00  0.00    -0.275 OA
ATOM    104  H   UNL     1      -8.354   0.623  -2.430  1.00  0.00     0.164 HD
ENDBRANCH  95  98
ENDBRANCH  86  94
ENDBRANCH  83  86
ENDBRANCH  70  82
ENDBRANCH  67  70
ENDBRANCH  62  66
ENDBRANCH  59  62
ENDBRANCH  48  58
ENDBRANCH   2  48
TORSDOF 34
