REMARK SMILES N=C(N)NCc1ccc2c(c1)OCCO2
REMARK SMILES IDX 3 1 2 2 1 3 4 4 5 9 6 10 11 11 7 12 10 13 8 14 9 15 12 16
REMARK SMILES IDX 15 17 13 18 14 19
REMARK H PARENT 3 5 3 6 1 7 4 8
ROOT
ATOM      1  N   UNL     1      -4.424   1.099  -1.458  1.00  0.00    -0.370 N 
ATOM      2  C   UNL     1      -4.031   0.421  -0.364  1.00  0.00     0.185 C 
ATOM      3  N   UNL     1      -4.907  -0.169   0.360  1.00  0.00    -0.270 NA
ATOM      4  N   UNL     1      -2.696   0.492  -0.186  1.00  0.00    -0.353 N 
ATOM      5  H   UNL     1      -4.043   2.036  -1.490  1.00  0.00     0.159 HD
ATOM      6  H   UNL     1      -5.440   1.136  -1.476  1.00  0.00     0.159 HD
ATOM      7  H   UNL     1      -4.458  -0.617   1.158  1.00  0.00     0.191 HD
ATOM      8  H   UNL     1      -2.207   0.654  -1.061  1.00  0.00     0.163 HD
ENDROOT
BRANCH   4   9
ATOM      9  C   UNL     1      -1.961  -0.389   0.696  1.00  0.00     0.152 C 
BRANCH   9  10
ATOM     10  C   UNL     1      -0.493  -0.049   0.636  1.00  0.00    -0.025 A 
ATOM     11  C   UNL     1       0.392  -0.833  -0.120  1.00  0.00     0.056 A 
ATOM     12  C   UNL     1       0.002   1.082   1.306  1.00  0.00     0.009 A 
ATOM     13  C   UNL     1       1.744  -0.498  -0.191  1.00  0.00     0.161 A 
ATOM     14  C   UNL     1       1.358   1.408   1.245  1.00  0.00     0.051 A 
ATOM     15  C   UNL     1       2.231   0.609   0.510  1.00  0.00     0.161 A 
ATOM     16  O   UNL     1       2.537  -1.306  -0.965  1.00  0.00    -0.486 OA
ATOM     17  O   UNL     1       3.553   0.976   0.512  1.00  0.00    -0.486 OA
ATOM     18  C   UNL     1       3.800  -0.688  -1.239  1.00  0.00     0.271 C 
ATOM     19  C   UNL     1       4.387  -0.081   0.024  1.00  0.00     0.271 C 
ENDBRANCH   9  10
ENDBRANCH   4   9
TORSDOF 2
