REMARK SMILES COc1ccccc1OC(=O)c1ccccc1OC(C)=O
REMARK SMILES IDX 10 1 11 2 9 3 8 4 3 5 4 6 7 7 5 8 6 9 2 10 1 11 12 12 17 13
REMARK SMILES IDX 13 14 16 15 14 16 15 17 18 18 19 19 21 20 20 21
REMARK H PARENT
ROOT
ATOM      1  C   UNL     1       0.236  -0.055   0.515  1.00  0.00     0.347 C 
ATOM      2  O   UNL     1       0.370   1.073   0.064  1.00  0.00    -0.246 OA
ENDROOT
BRANCH   1   3
ATOM      3  O   UNL     1      -0.903  -0.593   1.087  1.00  0.00    -0.419 OA
BRANCH   3   4
ATOM      4  C   UNL     1      -2.027   0.221   0.912  1.00  0.00     0.173 A 
ATOM      5  C   UNL     1      -2.743   0.175  -0.293  1.00  0.00     0.161 A 
ATOM      6  C   UNL     1      -3.882   0.974  -0.416  1.00  0.00     0.050 A 
ATOM      7  C   UNL     1      -2.434   1.017   1.982  1.00  0.00     0.051 A 
ATOM      8  C   UNL     1      -4.289   1.791   0.647  1.00  0.00     0.004 A 
ATOM      9  C   UNL     1      -3.569   1.812   1.843  1.00  0.00     0.004 A 
BRANCH   5  10
ATOM     10  O   UNL     1      -2.270  -0.683  -1.249  1.00  0.00    -0.493 OA
ATOM     11  C   UNL     1      -2.774  -0.507  -2.566  1.00  0.00     0.278 C 
ENDBRANCH   5  10
ENDBRANCH   3   4
ENDBRANCH   1   3
BRANCH   1  12
ATOM     12  C   UNL     1       1.328  -1.066   0.589  1.00  0.00     0.103 A 
ATOM     13  C   UNL     1       2.671  -0.668   0.547  1.00  0.00     0.145 A 
ATOM     14  C   UNL     1       1.039  -2.437   0.689  1.00  0.00     0.019 A 
ATOM     15  C   UNL     1       3.707  -1.602   0.654  1.00  0.00     0.048 A 
ATOM     16  C   UNL     1       2.073  -3.375   0.775  1.00  0.00     0.001 A 
ATOM     17  C   UNL     1       3.404  -2.957   0.763  1.00  0.00     0.004 A 
BRANCH  13  18
ATOM     18  O   UNL     1       3.024   0.682   0.475  1.00  0.00    -0.426 OA
BRANCH  18  19
ATOM     19  C   UNL     1       3.209   1.109  -0.837  1.00  0.00     0.308 C 
ATOM     20  O   UNL     1       3.228   0.408  -1.840  1.00  0.00    -0.252 OA
ATOM     21  C   UNL     1       3.432   2.592  -0.836  1.00  0.00     0.139 C 
ENDBRANCH  18  19
ENDBRANCH  13  18
ENDBRANCH   1  12
TORSDOF 6
