REMARK SMILES CCC(C)(C)NC(=N)NC#N
REMARK SMILES IDX 3 1 4 2 5 3 2 4 1 5 6 6 7 7 8 8 9 9 10 10 11 11
REMARK H PARENT 6 12 8 13 9 14
ROOT
ATOM      1  C   UNL     1      -0.570  -0.220   0.399  1.00  0.00     0.034 C 
ATOM      2  C   UNL     1      -0.846   1.210   0.888  1.00  0.00     0.034 C 
ATOM      3  C   UNL     1      -1.267  -1.202   1.367  1.00  0.00     0.034 C 
ENDROOT
BRANCH   1   4
ATOM      4  C   UNL     1      -1.073  -0.458  -1.049  1.00  0.00     0.024 C 
ATOM      5  C   UNL     1      -2.578  -0.330  -1.256  1.00  0.00     0.006 C 
ENDBRANCH   1   4
BRANCH   1   6
ATOM      6  N   UNL     1       0.872  -0.511   0.481  1.00  0.00    -0.351 N 
ATOM      7  C   UNL     1       1.855   0.154  -0.176  1.00  0.00     0.202 C 
ATOM      8  N   UNL     1       1.667   1.073  -1.045  1.00  0.00    -0.269 NA
ATOM      9  N   UNL     1       3.114  -0.293   0.229  1.00  0.00    -0.263 N 
ATOM     10  C   UNL     1       4.177   0.159  -0.429  1.00  0.00     0.183 C 
ATOM     11  N   UNL     1       5.108   0.549  -0.995  1.00  0.00    -0.172 NA
ATOM     12  H   UNL     1       1.155  -0.859   1.387  1.00  0.00     0.164 HD
ATOM     13  H   UNL     1       2.543   1.448  -1.412  1.00  0.00     0.191 HD
ATOM     14  H   UNL     1       3.167  -1.148   0.776  1.00  0.00     0.182 HD
ENDBRANCH   1   6
TORSDOF 2
