REMARK SMILES N=C(N)NCC1COC2(CCCCC2)O1
REMARK SMILES IDX 3 1 2 2 1 3 4 4 5 9 6 10 7 11 15 12 8 13 9 14 10 15 14 16
REMARK SMILES IDX 11 17 13 18 12 19
REMARK H PARENT 3 5 3 6 1 7 4 8
ROOT
ATOM      1  N   UNL     1       4.178  -1.909  -0.038  1.00  0.00    -0.370 N 
ATOM      2  C   UNL     1       3.799  -0.822   0.657  1.00  0.00     0.185 C 
ATOM      3  N   UNL     1       4.353  -0.565   1.782  1.00  0.00    -0.270 NA
ATOM      4  N   UNL     1       2.850  -0.117   0.006  1.00  0.00    -0.354 N 
ATOM      5  H   UNL     1       4.988  -2.325   0.411  1.00  0.00     0.159 HD
ATOM      6  H   UNL     1       4.383  -1.698  -1.006  1.00  0.00     0.159 HD
ATOM      7  H   UNL     1       3.966   0.296   2.166  1.00  0.00     0.191 HD
ATOM      8  H   UNL     1       2.290  -0.714  -0.601  1.00  0.00     0.163 HD
ENDROOT
BRANCH   4   9
ATOM      9  C   UNL     1       2.020   0.896   0.647  1.00  0.00     0.150 C 
BRANCH   9  10
ATOM     10  C   UNL     1       1.032   1.472  -0.381  1.00  0.00     0.166 C 
ATOM     11  C   UNL     1       0.084   2.470   0.235  1.00  0.00     0.197 C 
ATOM     12  O   UNL     1       0.165   0.429  -0.860  1.00  0.00    -0.342 OA
ATOM     13  O   UNL     1      -0.926   1.649   0.817  1.00  0.00    -0.347 OA
ATOM     14  C   UNL     1      -1.040   0.525  -0.074  1.00  0.00     0.168 C 
ATOM     15  C   UNL     1      -2.227   0.771  -1.022  1.00  0.00     0.066 C 
ATOM     16  C   UNL     1      -1.188  -0.763   0.752  1.00  0.00     0.066 C 
ATOM     17  C   UNL     1      -2.848  -0.539  -1.493  1.00  0.00     0.006 C 
ATOM     18  C   UNL     1      -2.652  -1.112   0.994  1.00  0.00     0.006 C 
ATOM     19  C   UNL     1      -3.398  -1.354  -0.320  1.00  0.00     0.000 C 
ENDBRANCH   9  10
ENDBRANCH   4   9
TORSDOF 2
