REMARK SMILES CCN(CC)CCOc1ccc(-c2nc3cc(Cl)ccc3s2)cc1
REMARK SMILES IDX 7 1 6 2 3 3 2 4 1 5 4 6 5 7 8 8 9 9 10 10 24 11 11 12 23 13
REMARK SMILES IDX 12 14 13 15 14 16 22 17 15 18 21 19 16 20 20 21 17 22 19 23
REMARK SMILES IDX 18 24
REMARK H PARENT
ROOT
ATOM      1  C   UNL     1      -2.525  -0.192  -0.222  1.00  0.00     0.245 C 
ENDROOT
BRANCH   1   2
ATOM      2  C   UNL     1      -3.905  -0.331  -0.889  1.00  0.00     0.126 C 
BRANCH   2   3
ATOM      3  N   UNL     1      -5.093  -0.287  -0.011  1.00  0.00    -0.301 NA
BRANCH   3   4
ATOM      4  C   UNL     1      -5.144  -1.469   0.867  1.00  0.00     0.081 C 
ATOM      5  C   UNL     1      -6.535  -1.722   1.440  1.00  0.00     0.021 C 
ENDBRANCH   3   4
BRANCH   3   6
ATOM      6  C   UNL     1      -5.232   0.969   0.741  1.00  0.00     0.081 C 
ATOM      7  C   UNL     1      -5.297   2.213  -0.141  1.00  0.00     0.021 C 
ENDBRANCH   3   6
ENDBRANCH   2   3
ENDBRANCH   1   2
BRANCH   1   8
ATOM      8  O   UNL     1      -1.527  -0.292  -1.243  1.00  0.00    -0.492 OA
BRANCH   8   9
ATOM      9  C   UNL     1      -0.222  -0.190  -0.852  1.00  0.00     0.119 A 
ATOM     10  C   UNL     1       0.707  -0.292  -1.886  1.00  0.00     0.047 A 
ATOM     11  C   UNL     1       0.235   0.001   0.450  1.00  0.00     0.047 A 
ATOM     12  C   UNL     1       2.078  -0.205  -1.623  1.00  0.00     0.015 A 
ATOM     13  C   UNL     1       1.612   0.088   0.713  1.00  0.00     0.015 A 
ATOM     14  C   UNL     1       2.560  -0.012  -0.318  1.00  0.00     0.011 A 
BRANCH  14  15
ATOM     15  C   UNL     1       4.021   0.072  -0.103  1.00  0.00     0.124 A 
ATOM     16  N   UNL     1       4.908  -0.029  -1.075  1.00  0.00    -0.236 NA
ATOM     17  S   UNL     1       4.707   0.314   1.459  1.00  0.00    -0.114 S 
ATOM     18  C   UNL     1       6.196   0.088  -0.584  1.00  0.00     0.083 A 
ATOM     19  C   UNL     1       6.290   0.281   0.793  1.00  0.00     0.055 A 
ATOM     20  C   UNL     1       7.378   0.026  -1.349  1.00  0.00     0.050 A 
ATOM     21  C   UNL     1       7.528   0.418   1.442  1.00  0.00     0.023 A 
ATOM     22  C   UNL     1       8.612   0.161  -0.710  1.00  0.00     0.043 A 
ATOM     23  C   UNL     1       8.690   0.354   0.666  1.00  0.00     0.022 A 
ATOM     24  Cl  UNL     1      10.059   0.087  -1.640  1.00  0.00    -0.084 Cl
ENDBRANCH  14  15
ENDBRANCH   8   9
ENDBRANCH   1   8
TORSDOF 7
