REMARK SMILES CCCCN(CCCC)CCC(O)c1cc2c(Cl)cc(Cl)cc2c2cc(C(F)(F)F)ccc12
REMARK SMILES IDX 10 1 5 2 4 3 3 4 2 5 1 6 6 7 7 8 8 9 9 10 11 11 12 12 13 13
REMARK SMILES IDX 14 15 33 16 15 17 32 18 24 19 16 20 31 21 25 22 23 23 17 24
REMARK SMILES IDX 26 25 22 26 19 27 20 28 18 29 21 30 27 31 28 32 29 33 30 34
REMARK H PARENT 13 14
ROOT
ATOM      1  C   UNL     1       2.102   1.143   0.324  1.00  0.00     0.087 C 
ENDROOT
BRANCH   1   2
ATOM      2  N   UNL     1       2.310  -0.320   0.335  1.00  0.00    -0.303 NA
BRANCH   2   3
ATOM      3  C   UNL     1       3.609  -0.676   0.937  1.00  0.00     0.084 C 
BRANCH   3   4
ATOM      4  C   UNL     1       3.548  -0.643   2.472  1.00  0.00     0.015 C 
BRANCH   4   5
ATOM      5  C   UNL     1       4.888  -0.979   3.135  1.00  0.00    -0.002 C 
ATOM      6  C   UNL     1       5.342  -2.412   2.906  1.00  0.00     0.004 C 
ENDBRANCH   4   5
ENDBRANCH   3   4
ENDBRANCH   2   3
BRANCH   2   7
ATOM      7  C   UNL     1       2.140  -0.952  -0.988  1.00  0.00     0.084 C 
BRANCH   7   8
ATOM      8  C   UNL     1       3.126  -0.531  -2.088  1.00  0.00     0.015 C 
BRANCH   8   9
ATOM      9  C   UNL     1       2.875  -1.317  -3.377  1.00  0.00    -0.002 C 
ATOM     10  C   UNL     1       3.842  -0.907  -4.477  1.00  0.00     0.004 C 
ENDBRANCH   8   9
ENDBRANCH   7   8
ENDBRANCH   2   7
ENDBRANCH   1   2
BRANCH   1  11
ATOM     11  C   UNL     1       0.642   1.554   0.085  1.00  0.00     0.052 C 
BRANCH  11  12
ATOM     12  C   UNL     1      -0.277   1.124   1.234  1.00  0.00     0.146 C 
BRANCH  12  13
ATOM     13  O   UNL     1      -0.006   1.947   2.376  1.00  0.00    -0.388 OA
ATOM     14  H   UNL     1      -0.645   1.685   3.061  1.00  0.00     0.211 HD
ENDBRANCH  12  13
BRANCH  12  15
ATOM     15  C   UNL     1      -1.747   1.244   0.837  1.00  0.00    -0.011 A 
ATOM     16  C   UNL     1      -2.481   0.164   0.290  1.00  0.00    -0.012 A 
ATOM     17  C   UNL     1      -2.371   2.495   0.985  1.00  0.00     0.017 A 
ATOM     18  C   UNL     1      -1.896  -1.108   0.064  1.00  0.00     0.010 A 
ATOM     19  C   UNL     1      -3.850   0.355  -0.054  1.00  0.00    -0.009 A 
ATOM     20  C   UNL     1      -3.718   2.727   0.657  1.00  0.00     0.001 A 
ATOM     21  C   UNL     1      -2.613  -2.180  -0.466  1.00  0.00     0.014 A 
ATOM     22  C   UNL     1      -4.546  -0.765  -0.588  1.00  0.00     0.022 A 
ATOM     23  C   UNL     1      -4.474   1.645   0.138  1.00  0.00    -0.008 A 
ATOM     24  C   UNL     1      -4.335   3.998   0.830  1.00  0.00     0.050 A 
ATOM     25  C   UNL     1      -3.949  -2.019  -0.803  1.00  0.00     0.056 A 
ATOM     26  C   UNL     1      -5.834   1.911  -0.177  1.00  0.00     0.030 A 
ATOM     27  C   UNL     1      -5.672   4.214   0.507  1.00  0.00     0.041 A 
ATOM     28  C   UNL     1      -6.416   3.166   0.005  1.00  0.00     0.043 A 
ATOM     29  Cl  UNL     1      -3.474   5.370   1.459  1.00  0.00    -0.084 Cl
ATOM     30  Cl  UNL     1      -8.071   3.408  -0.401  1.00  0.00    -0.084 Cl
BRANCH  25  31
ATOM     31  C   UNL     1      -4.755  -3.168  -1.356  1.00  0.00     0.416 C 
ATOM     32  F   UNL     1      -5.433  -3.837  -0.384  1.00  0.00    -0.166 F 
ATOM     33  F   UNL     1      -3.994  -4.101  -1.993  1.00  0.00    -0.166 F 
ATOM     34  F   UNL     1      -5.692  -2.772  -2.261  1.00  0.00    -0.166 F 
ENDBRANCH  25  31
ENDBRANCH  12  15
ENDBRANCH  11  12
ENDBRANCH   1  11
TORSDOF 12
