REMARK SMILES C[N+](C)(C)CCCCCC[N+](C)(C)C
REMARK SMILES IDX 7 1 6 2 5 3 2 4 1 5 3 6 4 7 8 8 9 9 10 10 11 11 12 12 13 13
REMARK SMILES IDX 14 14
REMARK H PARENT
ROOT
ATOM      1  C   UNL     1      -0.536  -0.029   0.775  1.00  0.00     0.006 C 
ENDROOT
BRANCH   1   2
ATOM      2  C   UNL     1      -1.763   0.219  -0.116  1.00  0.00     0.061 C 
BRANCH   2   3
ATOM      3  C   UNL     1      -3.047  -0.248   0.584  1.00  0.00     0.263 C 
BRANCH   3   4
ATOM      4  N   UNL     1      -4.330  -0.004  -0.227  1.00  0.00    -0.331 N 
ATOM      5  C   UNL     1      -5.513  -0.535   0.600  1.00  0.00     0.334 C 
ATOM      6  C   UNL     1      -4.317  -0.753  -1.556  1.00  0.00     0.334 C 
ATOM      7  C   UNL     1      -4.569   1.481  -0.480  1.00  0.00     0.334 C 
ENDBRANCH   3   4
ENDBRANCH   2   3
ENDBRANCH   1   2
BRANCH   1   8
ATOM      8  C   UNL     1       0.764   0.466   0.124  1.00  0.00     0.006 C 
BRANCH   8   9
ATOM      9  C   UNL     1       1.965   0.291   1.068  1.00  0.00     0.061 C 
BRANCH   9  10
ATOM     10  C   UNL     1       3.267   0.890   0.515  1.00  0.00     0.263 C 
BRANCH  10  11
ATOM     11  N   UNL     1       4.262  -0.137  -0.053  1.00  0.00    -0.331 N 
ATOM     12  C   UNL     1       3.659  -0.979  -1.165  1.00  0.00     0.334 C 
ATOM     13  C   UNL     1       5.451   0.643  -0.642  1.00  0.00     0.334 C 
ATOM     14  C   UNL     1       4.814  -1.047   1.045  1.00  0.00     0.334 C 
ENDBRANCH  10  11
ENDBRANCH   9  10
ENDBRANCH   8   9
ENDBRANCH   1   8
TORSDOF 7
