REMARK SMILES C[N+](C)(C)CCOC(=O)NCCCCCCNC(=O)OCC[N+](C)(C)C
REMARK SMILES IDX 13 1 12 2 11 3 10 4 8 5 9 6 7 8 6 9 5 10 2 11 1 12 3 13 4 14
REMARK SMILES IDX 14 15 15 16 16 17 17 18 18 19 19 20 20 22 21 23 22 24 23 25
REMARK SMILES IDX 24 26 25 27 26 28
REMARK H PARENT 10 7 17 21
ROOT
ATOM      1  C   UNL     1       0.671  -3.041   1.018  1.00  0.00     0.002 C 
ENDROOT
BRANCH   1   2
ATOM      2  C   UNL     1       1.141  -2.799  -0.422  1.00  0.00     0.021 C 
BRANCH   2   3
ATOM      3  C   UNL     1       2.151  -1.663  -0.579  1.00  0.00     0.119 C 
BRANCH   3   4
ATOM      4  N   UNL     1       3.396  -1.934   0.105  1.00  0.00    -0.321 N 
ATOM      5  C   UNL     1       4.379  -1.006   0.225  1.00  0.00     0.407 C 
ATOM      6  O   UNL     1       4.323   0.162  -0.130  1.00  0.00    -0.225 OA
ATOM      7  H   UNL     1       3.655  -2.888   0.324  1.00  0.00     0.167 HD
BRANCH   5   8
ATOM      8  O   UNL     1       5.479  -1.578   0.779  1.00  0.00    -0.444 OA
BRANCH   8   9
ATOM      9  C   UNL     1       6.565  -0.666   1.018  1.00  0.00     0.296 C 
BRANCH   9  10
ATOM     10  C   UNL     1       7.312  -0.337  -0.287  1.00  0.00     0.305 C 
BRANCH  10  11
ATOM     11  N   UNL     1       7.918   1.082  -0.345  1.00  0.00    -0.328 N 
ATOM     12  C   UNL     1       6.809   2.134  -0.408  1.00  0.00     0.334 C 
ATOM     13  C   UNL     1       8.743   1.192  -1.630  1.00  0.00     0.334 C 
ATOM     14  C   UNL     1       8.832   1.355   0.840  1.00  0.00     0.334 C 
ENDBRANCH  10  11
ENDBRANCH   9  10
ENDBRANCH   8   9
ENDBRANCH   5   8
ENDBRANCH   3   4
ENDBRANCH   2   3
ENDBRANCH   1   2
BRANCH   1  15
ATOM     15  C   UNL     1      -0.163  -1.914   1.637  1.00  0.00     0.002 C 
BRANCH  15  16
ATOM     16  C   UNL     1      -1.526  -1.733   0.964  1.00  0.00     0.021 C 
BRANCH  16  17
ATOM     17  C   UNL     1      -2.387  -0.717   1.715  1.00  0.00     0.119 C 
BRANCH  17  18
ATOM     18  N   UNL     1      -3.716  -0.620   1.151  1.00  0.00    -0.321 N 
ATOM     19  C   UNL     1      -4.001   0.150   0.068  1.00  0.00     0.407 C 
ATOM     20  O   UNL     1      -3.220   0.884  -0.516  1.00  0.00    -0.225 OA
ATOM     21  H   UNL     1      -4.432  -1.260   1.465  1.00  0.00     0.167 HD
BRANCH  19  22
ATOM     22  O   UNL     1      -5.306  -0.015  -0.276  1.00  0.00    -0.444 OA
BRANCH  22  23
ATOM     23  C   UNL     1      -5.687   0.727  -1.446  1.00  0.00     0.296 C 
BRANCH  23  24
ATOM     24  C   UNL     1      -7.197   0.596  -1.687  1.00  0.00     0.305 C 
BRANCH  24  25
ATOM     25  N   UNL     1      -8.093   1.431  -0.733  1.00  0.00    -0.328 N 
ATOM     26  C   UNL     1      -7.864   2.927  -0.918  1.00  0.00     0.334 C 
ATOM     27  C   UNL     1      -7.865   1.059   0.727  1.00  0.00     0.334 C 
ATOM     28  C   UNL     1      -9.554   1.124  -1.083  1.00  0.00     0.334 C 
ENDBRANCH  24  25
ENDBRANCH  23  24
ENDBRANCH  22  23
ENDBRANCH  19  22
ENDBRANCH  17  18
ENDBRANCH  16  17
ENDBRANCH  15  16
ENDBRANCH   1  15
TORSDOF 15
