REMARK SMILES CN1CCCN(C(c2ccccc2)c2ccc(Cl)cc2)CC1
REMARK SMILES IDX 21 1 22 2 2 3 1 4 3 5 6 7 5 8 4 9 7 11 8 12 9 13 13 14 10 15
REMARK SMILES IDX 12 16 11 17 14 18 15 19 20 20 16 21 19 22 17 23 18 24
REMARK H PARENT
REMARK Flexibility Score:   44.900
ROOT
ATOM      1  C   UNL     1       1.433   1.159   0.071  1.00  0.00     0.101 C 
ENDROOT
BRANCH   1   2
ATOM      2  C   UNL     1       2.902   1.023   0.567  1.00  0.00     0.099 C 
BRANCH   2   3
ATOM      3  N   UNL     1       3.674  -0.133   0.091  1.00  0.00    -0.305 NA
ATOM      4  C   UNL     1       4.918  -0.265   0.846  1.00  0.00     0.105 C 
BRANCH   3   5
ATOM      5  C   UNL     1       2.924  -1.390   0.049  1.00  0.00     0.085 CG0
ATOM      6  G   UNL     1       2.021  -1.709   1.246  1.00  0.00     0.000 G0
ENDBRANCH   3   5
ENDBRANCH   2   3
ENDBRANCH   1   2
BRANCH   1   7
ATOM      7  N   UNL     1       0.497   0.024   0.305  1.00  0.00    -0.291 NA
BRANCH   7   8
ATOM      8  C   UNL     1       0.878  -0.717   1.516  1.00  0.00     0.087 C 
BRANCH   8   9
ATOM      9  C   UNL     1       2.021  -1.709   1.246  1.00  0.00     0.031 CG0
ATOM     10  G   UNL     1       2.924  -1.390   0.049  1.00  0.00     0.000 G0
ENDBRANCH   8   9
ENDBRANCH   7   8
BRANCH   7  11
ATOM     11  C   UNL     1      -0.926   0.475   0.331  1.00  0.00     0.117 C 
BRANCH  11  12
ATOM     12  C   UNL     1      -1.318   1.377  -0.849  1.00  0.00    -0.026 A 
ATOM     13  C   UNL     1      -1.967   2.601  -0.611  1.00  0.00     0.006 A 
ATOM     14  C   UNL     1      -1.071   0.999  -2.180  1.00  0.00     0.006 A 
ATOM     15  C   UNL     1      -2.347   3.425  -1.672  1.00  0.00     0.000 A 
ATOM     16  C   UNL     1      -1.451   1.825  -3.239  1.00  0.00     0.000 A 
ATOM     17  C   UNL     1      -2.088   3.037  -2.985  1.00  0.00     0.000 A 
ENDBRANCH  11  12
BRANCH  11  18
ATOM     18  C   UNL     1      -1.930  -0.687   0.425  1.00  0.00    -0.026 A 
ATOM     19  C   UNL     1      -3.073  -0.560   1.234  1.00  0.00     0.007 A 
ATOM     20  C   UNL     1      -1.756  -1.874  -0.311  1.00  0.00     0.007 A 
ATOM     21  C   UNL     1      -4.006  -1.596   1.317  1.00  0.00     0.021 A 
ATOM     22  C   UNL     1      -2.689  -2.910  -0.226  1.00  0.00     0.021 A 
ATOM     23  C   UNL     1      -3.809  -2.766   0.588  1.00  0.00     0.041 A 
ATOM     24  Cl  UNL     1      -4.959  -4.042   0.694  1.00  0.00    -0.084 Cl
ENDBRANCH  11  18
ENDBRANCH   7  11
ENDBRANCH   1   7
TORSDOF 3
