REMARK SMILES OO
REMARK SMILES IDX 1 1 2 3
REMARK H PARENT 1 2 2 4
ROOT
ATOM      1  O   UNL     1      -0.567   0.436   0.243  1.00  0.00    -0.255 OA
ATOM      2  H   UNL     1      -1.209  -0.173  -0.170  1.00  0.00     0.255 HD
ENDROOT
BRANCH   1   3
ATOM      3  O   UNL     1       0.582  -0.451   0.171  1.00  0.00    -0.255 OA
ATOM      4  H   UNL     1       1.194   0.187  -0.244  1.00  0.00     0.255 HD
ENDBRANCH   1   3
TORSDOF 1
