REMARK SMILES O=C(O)[C@@H]1C[C@@H](O)CN1
REMARK SMILES IDX 6 1 8 2 9 3 4 4 5 5 7 7 2 9 1 10 3 11
REMARK H PARENT 9 6 7 8 3 12
ROOT
ATOM      1  C   UNL     1      -1.570   0.495   0.007  1.00  0.00     0.130 C 
ATOM      2  C   UNL     1      -1.310  -0.776   0.828  1.00  0.00     0.113 C 
ATOM      3  N   UNL     1       0.146  -0.864   0.972  1.00  0.00    -0.302 NA
ATOM      4  C   UNL     1       0.690  -0.218  -0.241  1.00  0.00     0.167 C 
ATOM      5  C   UNL     1      -0.187   1.018  -0.356  1.00  0.00     0.064 C 
ATOM      6  H   UNL     1       0.460  -1.833   1.017  1.00  0.00     0.123 HD
ENDROOT
BRANCH   1   7
ATOM      7  O   UNL     1      -2.281   0.165  -1.185  1.00  0.00    -0.392 OA
ATOM      8  H   UNL     1      -2.457   0.999  -1.655  1.00  0.00     0.211 HD
ENDBRANCH   1   7
BRANCH   4   9
ATOM      9  C   UNL     1       2.167   0.112  -0.086  1.00  0.00     0.320 C 
ATOM     10  O   UNL     1       2.721   1.153  -0.406  1.00  0.00    -0.251 OA
BRANCH   9  11
ATOM     11  O   UNL     1       2.893  -0.919   0.403  1.00  0.00    -0.480 OA
ATOM     12  H   UNL     1       3.801  -0.558   0.460  1.00  0.00     0.296 HD
ENDBRANCH   9  11
ENDBRANCH   4   9
TORSDOF 3
