REMARK SMILES CNCCc1ccc(OC(=O)C(C)C)c(OC(=O)C(C)C)c1
REMARK SMILES IDX 5 1 22 2 15 3 8 4 7 5 6 6 4 7 3 8 2 9 1 10 16 12 17 13 18 14
REMARK SMILES IDX 19 15 20 16 21 17 9 18 10 19 11 20 12 21 13 22 14 23
REMARK H PARENT 2 11
ROOT
ATOM      1  C   UNL     1       2.474  -0.267  -0.851  1.00  0.00    -0.043 A 
ATOM      2  C   UNL     1       1.540   0.773  -0.740  1.00  0.00     0.055 A 
ATOM      3  C   UNL     1       0.179   0.477  -0.665  1.00  0.00     0.173 A 
ATOM      4  C   UNL     1      -0.266  -0.845  -0.711  1.00  0.00     0.173 A 
ATOM      5  C   UNL     1       0.653  -1.884  -0.846  1.00  0.00     0.051 A 
ATOM      6  C   UNL     1       2.019  -1.595  -0.899  1.00  0.00     0.008 A 
ENDROOT
BRANCH   1   7
ATOM      7  C   UNL     1       3.953   0.035  -0.894  1.00  0.00     0.051 C 
BRANCH   7   8
ATOM      8  C   UNL     1       4.566   0.082   0.515  1.00  0.00     0.085 C 
BRANCH   8   9
ATOM      9  N   UNL     1       5.985   0.457   0.531  1.00  0.00    -0.319 NA
ATOM     10  C   UNL     1       6.855  -0.620   0.081  1.00  0.00     0.101 C 
ATOM     11  H   UNL     1       6.134   1.285  -0.044  1.00  0.00     0.122 HD
ENDBRANCH   8   9
ENDBRANCH   7   8
ENDBRANCH   1   7
BRANCH   3  12
ATOM     12  O   UNL     1      -0.707   1.563  -0.646  1.00  0.00    -0.422 OA
BRANCH  12  13
ATOM     13  C   UNL     1      -1.493   1.687   0.498  1.00  0.00     0.313 C 
ATOM     14  O   UNL     1      -1.462   0.964   1.485  1.00  0.00    -0.252 OA
BRANCH  13  15
ATOM     15  C   UNL     1      -2.404   2.890   0.331  1.00  0.00     0.093 C 
ATOM     16  C   UNL     1      -3.623   2.771   1.242  1.00  0.00     0.019 C 
ATOM     17  C   UNL     1      -1.626   4.167   0.620  1.00  0.00     0.019 C 
ENDBRANCH  13  15
ENDBRANCH  12  13
ENDBRANCH   3  12
BRANCH   4  18
ATOM     18  O   UNL     1      -1.648  -1.081  -0.702  1.00  0.00    -0.422 OA
BRANCH  18  19
ATOM     19  C   UNL     1      -2.132  -1.970   0.261  1.00  0.00     0.313 C 
ATOM     20  O   UNL     1      -1.466  -2.678   1.005  1.00  0.00    -0.252 OA
BRANCH  19  21
ATOM     21  C   UNL     1      -3.650  -1.950   0.209  1.00  0.00     0.093 C 
ATOM     22  C   UNL     1      -4.134  -2.852  -0.920  1.00  0.00     0.019 C 
ATOM     23  C   UNL     1      -4.238  -2.380   1.550  1.00  0.00     0.019 C 
ENDBRANCH  19  21
ENDBRANCH  18  19
ENDBRANCH   4  18
TORSDOF 9
