REMARK SMILES COc1cc(C(C)=O)ccc1OCCCN1CCC(c2noc3cc(F)ccc23)CC1
REMARK SMILES IDX 13 1 12 2 11 3 3 4 4 5 10 6 5 7 9 8 2 9 1 10 6 11 8 12 7 13
REMARK SMILES IDX 14 14 15 15 16 16 17 17 31 18 18 19 30 20 19 21 20 22 21 23
REMARK SMILES IDX 29 24 22 25 28 26 23 27 27 28 24 29 25 30 26 31
REMARK H PARENT
ROOT
ATOM      1  C   UNL     1      -1.091  -1.107   0.419  1.00  0.00     0.231 C 
ENDROOT
BRANCH   1   2
ATOM      2  O   UNL     1      -2.183  -1.334  -0.470  1.00  0.00    -0.490 OA
BRANCH   2   3
ATOM      3  C   UNL     1      -3.458  -1.014  -0.077  1.00  0.00     0.161 A 
ATOM      4  C   UNL     1      -4.485  -1.366  -0.979  1.00  0.00     0.161 A 
ATOM      5  C   UNL     1      -5.821  -1.081  -0.665  1.00  0.00     0.062 A 
ATOM      6  C   UNL     1      -3.786  -0.369   1.118  1.00  0.00     0.051 A 
ATOM      7  C   UNL     1      -6.143  -0.438   0.537  1.00  0.00     0.021 A 
ATOM      8  C   UNL     1      -5.120  -0.085   1.424  1.00  0.00     0.016 A 
BRANCH   4   9
ATOM      9  O   UNL     1      -4.080  -1.994  -2.132  1.00  0.00    -0.493 OA
ATOM     10  C   UNL     1      -5.060  -2.261  -3.126  1.00  0.00     0.278 C 
ENDBRANCH   4   9
BRANCH   7  11
ATOM     11  C   UNL     1      -7.551  -0.111   0.917  1.00  0.00     0.159 C 
ATOM     12  O   UNL     1      -7.792   0.356   2.028  1.00  0.00    -0.295 OA
ATOM     13  C   UNL     1      -8.655  -0.365  -0.077  1.00  0.00     0.093 C 
ENDBRANCH   7  11
ENDBRANCH   2   3
ENDBRANCH   1   2
BRANCH   1  14
ATOM     14  C   UNL     1      -0.537   0.306   0.244  1.00  0.00     0.057 C 
BRANCH  14  15
ATOM     15  C   UNL     1       0.690   0.530   1.132  1.00  0.00     0.088 C 
BRANCH  15  16
ATOM     16  N   UNL     1       1.148   1.928   1.144  1.00  0.00    -0.303 NA
ATOM     17  C   UNL     1       1.631   2.427  -0.151  1.00  0.00     0.085 C 
ATOM     18  C   UNL     1       2.150   2.172   2.193  1.00  0.00     0.085 C 
ATOM     19  C   UNL     1       2.977   1.837  -0.573  1.00  0.00     0.026 C 
ATOM     20  C   UNL     1       3.525   1.577   1.882  1.00  0.00     0.026 C 
ATOM     21  C   UNL     1       4.036   2.058   0.516  1.00  0.00     0.045 C 
BRANCH  21  22
ATOM     22  C   UNL     1       5.357   1.446   0.153  1.00  0.00     0.095 A 
ATOM     23  N   UNL     1       6.419   2.246  -0.031  1.00  0.00    -0.083 NA
ATOM     24  C   UNL     1       5.701   0.080  -0.048  1.00  0.00     0.045 A 
ATOM     25  O   UNL     1       7.474   1.412  -0.355  1.00  0.00    -0.356 OA
ATOM     26  C   UNL     1       5.058  -1.172  -0.006  1.00  0.00     0.017 A 
ATOM     27  C   UNL     1       7.050   0.122  -0.366  1.00  0.00     0.170 A 
ATOM     28  C   UNL     1       5.814  -2.319  -0.283  1.00  0.00     0.040 A 
ATOM     29  C   UNL     1       7.830  -0.994  -0.648  1.00  0.00     0.090 A 
ATOM     30  C   UNL     1       7.169  -2.219  -0.596  1.00  0.00     0.127 A 
ATOM     31  F   UNL     1       7.858  -3.339  -0.854  1.00  0.00    -0.207 F 
ENDBRANCH  21  22
ENDBRANCH  15  16
ENDBRANCH  14  15
ENDBRANCH   1  14
TORSDOF 8
