REMARK SMILES CCCN1CC(c2ccc(S(C)(=O)=O)cc2)=C(c2ccc(C)cc2)C1=O
REMARK SMILES IDX 4 1 5 2 6 3 17 4 25 5 26 6 3 7 2 8 1 9 7 10 8 11 16 12 9 13
REMARK SMILES IDX 15 14 10 15 11 16 13 17 14 18 12 19 18 20 19 21 24 22 20 23
REMARK SMILES IDX 23 24 21 25 22 26
REMARK H PARENT
ROOT
ATOM      1  N   UNL     1      -2.215  -1.835   1.320  1.00  0.00    -0.334 N 
ATOM      2  C   UNL     1      -0.787  -1.957   1.312  1.00  0.00     0.156 C 
ATOM      3  C   UNL     1      -0.378  -0.636   0.737  1.00  0.00    -0.008 C 
ATOM      4  C   UNL     1      -1.429   0.175   0.491  1.00  0.00     0.052 C 
ATOM      5  C   UNL     1      -2.642  -0.611   0.854  1.00  0.00     0.255 C 
ATOM      6  O   UNL     1      -3.796  -0.235   0.747  1.00  0.00    -0.269 OA
ENDROOT
BRANCH   1   7
ATOM      7  C   UNL     1      -3.096  -2.899   1.760  1.00  0.00     0.120 C 
BRANCH   7   8
ATOM      8  C   UNL     1      -3.766  -3.648   0.608  1.00  0.00     0.018 C 
ATOM      9  C   UNL     1      -2.788  -4.434  -0.251  1.00  0.00     0.006 C 
ENDBRANCH   7   8
ENDBRANCH   1   7
BRANCH   3  10
ATOM     10  C   UNL     1       1.047  -0.370   0.494  1.00  0.00    -0.020 A 
ATOM     11  C   UNL     1       1.484   0.109  -0.751  1.00  0.00     0.010 A 
ATOM     12  C   UNL     1       1.997  -0.610   1.498  1.00  0.00     0.010 A 
ATOM     13  C   UNL     1       2.839   0.357  -0.987  1.00  0.00     0.021 A 
ATOM     14  C   UNL     1       3.355  -0.367   1.269  1.00  0.00     0.021 A 
ATOM     15  C   UNL     1       3.768   0.105   0.022  1.00  0.00     0.067 A 
BRANCH  15  16
ATOM     16  S   UNL     1       5.489   0.438  -0.270  1.00  0.00     0.175 S 
ATOM     17  O   UNL     1       6.141   0.542   1.022  1.00  0.00    -0.224 OA
ATOM     18  O   UNL     1       5.566   1.520  -1.232  1.00  0.00    -0.224 OA
ATOM     19  C   UNL     1       6.062  -1.045  -1.055  1.00  0.00     0.163 C 
ENDBRANCH  15  16
ENDBRANCH   3  10
BRANCH   4  20
ATOM     20  C   UNL     1      -1.458   1.542  -0.039  1.00  0.00    -0.012 A 
ATOM     21  C   UNL     1      -2.345   1.885  -1.066  1.00  0.00     0.009 A 
ATOM     22  C   UNL     1      -0.618   2.538   0.478  1.00  0.00     0.009 A 
ATOM     23  C   UNL     1      -2.375   3.184  -1.583  1.00  0.00     0.004 A 
ATOM     24  C   UNL     1      -0.645   3.837  -0.039  1.00  0.00     0.004 A 
ATOM     25  C   UNL     1      -1.513   4.166  -1.084  1.00  0.00    -0.051 A 
ATOM     26  C   UNL     1      -1.569   5.568  -1.614  1.00  0.00     0.044 C 
ENDBRANCH   4  20
TORSDOF 5
