REMARK SMILES CCc1ccc(C(=O)C(C)CN2CCCC2)cc1
REMARK SMILES IDX 7 1 8 2 6 3 3 4 4 5 18 6 5 7 17 8 2 9 1 10 9 11 10 12 11 13
REMARK SMILES IDX 12 14 13 15 16 16 14 17 15 18
REMARK H PARENT
ROOT
ATOM      1  C   UNL     1       0.089  -1.191   0.845  1.00  0.00     0.166 C 
ATOM      2  O   UNL     1      -0.105  -2.193   1.533  1.00  0.00    -0.294 OA
ENDROOT
BRANCH   1   3
ATOM      3  C   UNL     1       1.471  -0.621   0.782  1.00  0.00     0.018 A 
ATOM      4  C   UNL     1       4.104   0.387   0.767  1.00  0.00    -0.048 A 
ATOM      5  C   UNL     1       3.697  -0.518   1.754  1.00  0.00     0.004 A 
ATOM      6  C   UNL     1       3.188   0.771  -0.220  1.00  0.00     0.004 A 
ATOM      7  C   UNL     1       2.392  -1.017   1.761  1.00  0.00     0.012 A 
ATOM      8  C   UNL     1       1.881   0.272  -0.214  1.00  0.00     0.012 A 
BRANCH   4   9
ATOM      9  C   UNL     1       5.517   0.912   0.748  1.00  0.00     0.032 C 
ATOM     10  C   UNL     1       6.439   0.024  -0.073  1.00  0.00     0.009 C 
ENDBRANCH   4   9
ENDBRANCH   1   3
BRANCH   1  11
ATOM     11  C   UNL     1      -1.040  -0.534   0.052  1.00  0.00     0.072 C 
ATOM     12  C   UNL     1      -1.182  -1.262  -1.281  1.00  0.00     0.018 C 
BRANCH  11  13
ATOM     13  C   UNL     1      -2.324  -0.556   0.914  1.00  0.00     0.096 C 
BRANCH  13  14
ATOM     14  N   UNL     1      -3.519   0.133   0.431  1.00  0.00    -0.303 NA
ATOM     15  C   UNL     1      -3.346   1.435  -0.190  1.00  0.00     0.084 C 
ATOM     16  C   UNL     1      -4.423  -0.648  -0.402  1.00  0.00     0.084 C 
ATOM     17  C   UNL     1      -4.764   1.743  -0.636  1.00  0.00     0.017 C 
ATOM     18  C   UNL     1      -5.309   0.393  -1.083  1.00  0.00     0.017 C 
ENDBRANCH  13  14
ENDBRANCH  11  13
ENDBRANCH   1  11
TORSDOF 5
