REMARK SMILES O=C1/C(=C2\Nc3ccc(S(=O)(=O)O)cc3C2=O)Nc2ccc(S(=O)(=O)O)cc21
REMARK SMILES IDX 22 1 27 2 28 3 19 4 18 5 3 6 2 7 1 8 4 9 5 10 6 11 15 12
REMARK SMILES IDX 14 13 9 14 8 15 7 16 16 17 17 18 20 19 21 20 23 23 24 24
REMARK SMILES IDX 25 25 26 26 10 28 11 29 12 30 13 31
REMARK H PARENT 18 21 5 22 26 27 13 32
ROOT
ATOM      1  C   UNL     1       5.209  -0.237   1.035  1.00  0.00     0.095 A 
ATOM      2  C   UNL     1       4.127   0.628   1.209  1.00  0.00     0.037 A 
ATOM      3  C   UNL     1       2.903   0.162   0.778  1.00  0.00     0.049 A 
ATOM      4  C   UNL     1       2.720  -1.095   0.176  1.00  0.00     0.050 A 
ATOM      5  N   UNL     1       1.378  -1.330  -0.097  1.00  0.00    -0.350 N 
ATOM      6  C   UNL     1       0.647  -0.192   0.179  1.00  0.00     0.115 C 
ATOM      7  C   UNL     1       1.578   0.808   0.821  1.00  0.00     0.213 C 
ATOM      8  O   UNL     1       1.312   1.904   1.272  1.00  0.00    -0.287 OA
ATOM      9  C   UNL     1      -0.629   0.120  -0.054  1.00  0.00     0.115 C 
ATOM     10  N   UNL     1      -1.361   1.258   0.225  1.00  0.00    -0.350 N 
ATOM     11  C   UNL     1      -2.706   1.013  -0.032  1.00  0.00     0.050 A 
ATOM     12  C   UNL     1      -2.888  -0.243  -0.636  1.00  0.00     0.049 A 
ATOM     13  C   UNL     1      -4.114  -0.716  -1.057  1.00  0.00     0.037 A 
ATOM     14  C   UNL     1      -5.200   0.140  -0.863  1.00  0.00     0.095 A 
ATOM     15  C   UNL     1      -5.042   1.420  -0.284  1.00  0.00     0.025 A 
ATOM     16  C   UNL     1      -3.778   1.865   0.128  1.00  0.00     0.028 A 
ATOM     17  C   UNL     1      -1.560  -0.881  -0.694  1.00  0.00     0.213 C 
ATOM     18  O   UNL     1      -1.289  -1.970  -1.158  1.00  0.00    -0.287 OA
ATOM     19  C   UNL     1       3.790  -1.952   0.024  1.00  0.00     0.028 A 
ATOM     20  C   UNL     1       5.052  -1.513   0.447  1.00  0.00     0.025 A 
ATOM     21  H   UNL     1       1.014  -2.024  -0.742  1.00  0.00     0.167 HD
ATOM     22  H   UNL     1      -1.003   1.937   0.889  1.00  0.00     0.167 HD
ENDROOT
BRANCH   1  23
ATOM     23  S   UNL     1       6.825   0.291   1.536  1.00  0.00     0.294 S 
ATOM     24  O   UNL     1       6.908   0.134   2.969  1.00  0.00    -0.194 OA
ATOM     25  O   UNL     1       7.791  -0.304   0.638  1.00  0.00    -0.194 OA
BRANCH  23  26
ATOM     26  O   UNL     1       6.863   1.868   1.202  1.00  0.00    -0.282 OA
ATOM     27  H   UNL     1       7.705   2.051   0.735  1.00  0.00     0.234 HD
ENDBRANCH  23  26
ENDBRANCH   1  23
BRANCH  14  28
ATOM     28  S   UNL     1      -6.813  -0.366  -1.394  1.00  0.00     0.294 S 
ATOM     29  O   UNL     1      -7.583  -0.672  -0.211  1.00  0.00    -0.194 OA
ATOM     30  O   UNL     1      -6.657  -1.308  -2.481  1.00  0.00    -0.194 OA
BRANCH  28  31
ATOM     31  O   UNL     1      -7.446   0.952  -2.076  1.00  0.00    -0.282 OA
ATOM     32  H   UNL     1      -7.787   0.690  -2.957  1.00  0.00     0.234 HD
ENDBRANCH  28  31
ENDBRANCH  14  28
TORSDOF 4
