REMARK SMILES O=C(NC1CCN(CCc2c[nH]c3ccccc23)CC1)c1ccccc1
REMARK SMILES IDX 8 1 7 2 4 3 5 4 20 5 6 6 19 7 3 8 1 9 2 10 21 12 22 13 26 14
REMARK SMILES IDX 23 15 25 16 24 17 9 18 10 19 11 20 18 21 12 22 13 23 17 24
REMARK SMILES IDX 14 25 16 26 15 27
REMARK H PARENT 3 11 12 28
ROOT
ATOM      1  C   UNL     1      -2.005  -2.117   1.581  1.00  0.00     0.089 C 
ENDROOT
BRANCH   1   2
ATOM      2  N   UNL     1      -0.828  -1.660   0.814  1.00  0.00    -0.303 NA
ATOM      3  C   UNL     1       1.565  -0.738  -0.280  1.00  0.00     0.084 C 
ATOM      4  C   UNL     1       1.670  -1.384   1.100  1.00  0.00     0.040 C 
ATOM      5  C   UNL     1       0.333   0.177  -0.338  1.00  0.00     0.040 C 
ATOM      6  C   UNL     1       0.410  -2.200   1.412  1.00  0.00     0.086 C 
ATOM      7  C   UNL     1      -0.755  -0.208   0.672  1.00  0.00     0.086 C 
BRANCH   3   8
ATOM      8  N   UNL     1       2.779  -0.004  -0.629  1.00  0.00    -0.349 N 
ATOM      9  O   UNL     1       4.071  -1.869  -1.002  1.00  0.00    -0.269 OA
ATOM     10  C   UNL     1       3.949  -0.650  -0.976  1.00  0.00     0.251 C 
ATOM     11  H   UNL     1       2.706   0.990  -0.797  1.00  0.00     0.164 HD
BRANCH  10  12
ATOM     12  C   UNL     1       5.093   0.223  -1.358  1.00  0.00     0.039 A 
ATOM     13  C   UNL     1       6.030  -0.272  -2.274  1.00  0.00     0.014 A 
ATOM     14  C   UNL     1       5.269   1.499  -0.805  1.00  0.00     0.014 A 
ATOM     15  C   UNL     1       7.122   0.513  -2.652  1.00  0.00     0.001 A 
ATOM     16  C   UNL     1       6.364   2.280  -1.186  1.00  0.00     0.001 A 
ATOM     17  C   UNL     1       7.286   1.788  -2.111  1.00  0.00     0.000 A 
ENDBRANCH  10  12
ENDBRANCH   3   8
ENDBRANCH   1   2
BRANCH   1  18
ATOM     18  C   UNL     1      -3.358  -1.989   0.852  1.00  0.00     0.053 C 
BRANCH  18  19
ATOM     19  C   UNL     1      -4.094  -0.704   1.095  1.00  0.00    -0.021 A 
ATOM     20  C   UNL     1      -4.561  -0.242   2.312  1.00  0.00     0.087 A 
ATOM     21  C   UNL     1      -4.483   0.264   0.112  1.00  0.00     0.003 A 
ATOM     22  N   UNL     1      -5.187   0.957   2.109  1.00  0.00    -0.361 N 
ATOM     23  C   UNL     1      -5.154   1.292   0.776  1.00  0.00     0.046 A 
ATOM     24  C   UNL     1      -4.323   0.363  -1.287  1.00  0.00     0.010 A 
ATOM     25  C   UNL     1      -5.668   2.414   0.115  1.00  0.00     0.026 A 
ATOM     26  C   UNL     1      -4.832   1.477  -1.964  1.00  0.00     0.001 A 
ATOM     27  C   UNL     1      -5.494   2.487  -1.271  1.00  0.00     0.002 A 
ATOM     28  H   UNL     1      -5.624   1.516   2.828  1.00  0.00     0.166 HD
ENDBRANCH  18  19
ENDBRANCH   1  18
TORSDOF 5
