REMARK SMILES CC1(C)C(=CC=CC=CC=CC2=[N+](CCCCS(=O)(=O)O)c3ccc4ccccc4c3C2(C)C)N(CCCCS(=O)(=O)O)c2ccc3ccccc3c21
REMARK SMILES IDX 8 1 9 2 7 3 6 4 5 5 2 6 4 7 53 8 35 9 44 10 52 11 45 12
REMARK SMILES IDX 51 13 47 14 46 15 50 16 48 17 49 18 1 19 3 20 36 21 37 22
REMARK SMILES IDX 38 23 39 24 40 25 41 26 42 27 43 28 10 30 11 31 12 32 13 33
REMARK SMILES IDX 32 34 22 35 31 36 23 37 30 38 24 39 29 40 25 41 28 42 26 43
REMARK SMILES IDX 27 44 33 45 34 46 14 47 15 48 16 49 17 50 18 51 19 52 20 53
REMARK SMILES IDX 21 54
REMARK H PARENT 43 29 21 55
ROOT
ATOM      1  C   UNL     1      -0.353   1.653  -2.196  1.00  0.00     0.000 C 
ATOM      2  C   UNL     1      -1.696   1.670  -2.138  1.00  0.00     0.000 C 
ENDROOT
BRANCH   1   3
ATOM      3  C   UNL     1       0.554   0.747  -1.519  1.00  0.00     0.000 C 
ATOM      4  C   UNL     1       1.889   0.828  -1.649  1.00  0.00     0.002 C 
BRANCH   4   5
ATOM      5  C   UNL     1       2.796  -0.081  -0.977  1.00  0.00     0.022 C 
ATOM      6  C   UNL     1       5.111   0.827  -1.818  1.00  0.00     0.033 C 
ATOM      7  C   UNL     1       4.147  -0.119  -1.012  1.00  0.00     0.028 C 
ATOM      8  C   UNL     1       6.494   0.272  -1.435  1.00  0.00    -0.005 A 
ATOM      9  N   UNL     1       4.939  -1.035  -0.299  1.00  0.00    -0.344 N 
ATOM     10  C   UNL     1       6.299  -0.810  -0.552  1.00  0.00     0.046 A 
ATOM     11  C   UNL     1       7.793   0.673  -1.840  1.00  0.00    -0.012 A 
ATOM     12  C   UNL     1       7.386  -1.510  -0.059  1.00  0.00     0.027 A 
ATOM     13  C   UNL     1       8.086   1.742  -2.718  1.00  0.00     0.009 A 
ATOM     14  C   UNL     1       8.891  -0.061  -1.321  1.00  0.00    -0.018 A 
ATOM     15  C   UNL     1       8.673  -1.135  -0.443  1.00  0.00     0.011 A 
ATOM     16  C   UNL     1       9.398   2.067  -3.074  1.00  0.00     0.001 A 
ATOM     17  C   UNL     1      10.205   0.281  -1.685  1.00  0.00     0.009 A 
ATOM     18  C   UNL     1      10.458   1.335  -2.559  1.00  0.00     0.001 A 
ATOM     19  C   UNL     1       4.971   2.276  -1.320  1.00  0.00     0.023 C 
ATOM     20  C   UNL     1       4.891   0.680  -3.334  1.00  0.00     0.023 C 
BRANCH   9  21
ATOM     21  C   UNL     1       4.521  -2.028   0.688  1.00  0.00     0.122 C 
BRANCH  21  22
ATOM     22  C   UNL     1       4.668  -1.509   2.127  1.00  0.00     0.023 C 
BRANCH  22  23
ATOM     23  C   UNL     1       3.692  -0.374   2.462  1.00  0.00     0.020 C 
BRANCH  23  24
ATOM     24  C   UNL     1       3.799   0.116   3.903  1.00  0.00     0.167 C 
BRANCH  24  25
ATOM     25  S   UNL     1       4.994   1.424   4.160  1.00  0.00     0.264 S 
ATOM     26  O   UNL     1       4.857   2.431   3.132  1.00  0.00    -0.200 OA
ATOM     27  O   UNL     1       5.013   1.760   5.565  1.00  0.00    -0.200 OA
BRANCH  25  28
ATOM     28  O   UNL     1       6.346   0.610   3.826  1.00  0.00    -0.286 OA
ATOM     29  H   UNL     1       6.827   1.092   3.115  1.00  0.00     0.234 HD
ENDBRANCH  25  28
ENDBRANCH  24  25
ENDBRANCH  23  24
ENDBRANCH  22  23
ENDBRANCH  21  22
ENDBRANCH   9  21
ENDBRANCH   4   5
ENDBRANCH   1   3
BRANCH   2  30
ATOM     30  C   UNL     1      -2.547   0.801  -1.349  1.00  0.00     0.006 C 
ATOM     31  C   UNL     1      -3.881   0.783  -1.486  1.00  0.00     0.075 C 
BRANCH  31  32
ATOM     32  C   UNL     1      -4.836  -0.073  -0.724  1.00  0.00     0.192 C 
ATOM     33  N   UNL     1      -6.132  -0.028  -0.865  1.00  0.00    -0.195 N 
ATOM     34  C   UNL     1      -4.438  -1.138   0.354  1.00  0.00     0.081 C 
ATOM     35  C   UNL     1      -6.763  -1.056  -0.012  1.00  0.00     0.210 A 
ATOM     36  C   UNL     1      -5.791  -1.714   0.739  1.00  0.00     0.048 A 
ATOM     37  C   UNL     1      -8.105  -1.382   0.060  1.00  0.00     0.080 A 
ATOM     38  C   UNL     1      -6.154  -2.739   1.640  1.00  0.00    -0.007 A 
ATOM     39  C   UNL     1      -8.481  -2.396   0.939  1.00  0.00     0.015 A 
ATOM     40  C   UNL     1      -5.251  -3.459   2.455  1.00  0.00     0.009 A 
ATOM     41  C   UNL     1      -7.532  -3.073   1.728  1.00  0.00    -0.018 A 
ATOM     42  C   UNL     1      -5.689  -4.467   3.319  1.00  0.00     0.001 A 
ATOM     43  C   UNL     1      -7.953  -4.086   2.603  1.00  0.00     0.009 A 
ATOM     44  C   UNL     1      -7.038  -4.780   3.393  1.00  0.00     0.001 A 
ATOM     45  C   UNL     1      -3.797  -0.444   1.566  1.00  0.00     0.028 C 
ATOM     46  C   UNL     1      -3.560  -2.240  -0.256  1.00  0.00     0.028 C 
BRANCH  33  47
ATOM     47  C   UNL     1      -6.985   0.845  -1.714  1.00  0.00     0.357 C 
BRANCH  47  48
ATOM     48  C   UNL     1      -7.721   1.911  -0.889  1.00  0.00     0.074 C 
BRANCH  48  49
ATOM     49  C   UNL     1      -6.838   2.912  -0.130  1.00  0.00     0.025 C 
BRANCH  49  50
ATOM     50  C   UNL     1      -6.104   3.892  -1.041  1.00  0.00     0.167 C 
BRANCH  50  51
ATOM     51  S   UNL     1      -4.956   4.941  -0.154  1.00  0.00     0.264 S 
ATOM     52  O   UNL     1      -4.111   5.618  -1.107  1.00  0.00    -0.200 OA
ATOM     53  O   UNL     1      -5.640   5.619   0.919  1.00  0.00    -0.200 OA
BRANCH  51  54
ATOM     54  O   UNL     1      -4.065   3.777   0.531  1.00  0.00    -0.286 OA
ATOM     55  H   UNL     1      -3.627   4.172   1.321  1.00  0.00     0.234 HD
ENDBRANCH  51  54
ENDBRANCH  50  51
ENDBRANCH  49  50
ENDBRANCH  48  49
ENDBRANCH  47  48
ENDBRANCH  33  47
ENDBRANCH  31  32
ENDBRANCH   2  30
TORSDOF 16
