REMARK SMILES C/C=C(/C)C(=O)O[C@H]1C(C)=C[C@]23C(=O)[C@@H](C=C(CO)[C@@H](O)[C@]12O)[C@H]1[C@@H](C[C@H]3C)C1(C)C
REMARK SMILES IDX 13 1 14 2 12 3 8 4 9 5 22 6 11 7 10 8 7 9 5 10 6 11 3 12
REMARK SMILES IDX 2 13 1 14 4 15 20 16 21 18 23 20 27 22 28 23 15 25 24 26
REMARK SMILES IDX 25 27 29 28 30 29 31 30 26 31 16 33 17 34 18 36 19 37
REMARK H PARENT 21 19 23 21 19 38
REMARK Flexibility Score:   28.800
ROOT
ATOM      1  C   UNL     1      -1.416   1.078   1.289  1.00  0.00     0.153 C 
ATOM      2  O   UNL     1      -1.755   1.873   2.167  1.00  0.00    -0.298 OA
ENDROOT
BRANCH   1   3
ATOM      3  C   UNL     1      -0.028   1.008   0.719  1.00  0.00     0.086 C 
ATOM      4  C   UNL     1       1.995  -0.366   1.142  1.00  0.00     0.238 C 
ATOM      5  C   UNL     1       2.069   0.957   1.843  1.00  0.00    -0.033 C 
ATOM      6  C   UNL     1       0.455  -0.497   0.814  1.00  0.00     0.151 C 
ATOM      7  C   UNL     1       0.965   1.685   1.647  1.00  0.00    -0.006 C 
ATOM      8  C   UNL     1       3.262   1.340   2.642  1.00  0.00     0.043 C 
BRANCH   4   9
ATOM      9  O   UNL     1       2.844  -0.295  -0.007  1.00  0.00    -0.451 OA
BRANCH   9  10
ATOM     10  C   UNL     1       3.180  -1.505  -0.515  1.00  0.00     0.334 C 
ATOM     11  O   UNL     1       2.788  -2.578  -0.070  1.00  0.00    -0.247 OA
BRANCH  10  12
ATOM     12  C   UNL     1       4.160  -1.410  -1.641  1.00  0.00     0.030 C 
ATOM     13  C   UNL     1       4.522  -0.291  -2.300  1.00  0.00    -0.020 C 
ATOM     14  C   UNL     1       4.010   1.101  -2.114  1.00  0.00     0.036 C 
ATOM     15  C   UNL     1       4.758  -2.741  -2.015  1.00  0.00     0.052 C 
ENDBRANCH  10  12
ENDBRANCH   9  10
ENDBRANCH   4   9
BRANCH   6  16
ATOM     16  C   UNL     1      -0.186  -1.404   1.995  1.00  0.00     0.180 CG1
ATOM     17  G   UNL     1      -1.699  -1.561   2.302  1.00  0.00     0.000 G1
BRANCH  16  18
ATOM     18  O   UNL     1       0.251  -2.752   1.709  1.00  0.00    -0.385 OA
ATOM     19  H   UNL     1       1.117  -2.897   2.137  1.00  0.00     0.211 HD
ENDBRANCH  16  18
ENDBRANCH   6  16
BRANCH   6  20
ATOM     20  O   UNL     1       0.290  -1.193  -0.436  1.00  0.00    -0.381 OA
ATOM     21  H   UNL     1       0.442  -2.140  -0.228  1.00  0.00     0.211 HD
ENDBRANCH   6  20
BRANCH   3  22
ATOM     22  C   UNL     1      -0.073   1.708  -0.704  1.00  0.00     0.007 CG0
ATOM     23  C   UNL     1      -0.106   3.248  -0.608  1.00  0.00     0.009 C 
ATOM     24  G   UNL     1      -1.191   1.266  -1.713  1.00  0.00     0.000 G0
ENDBRANCH   3  22
ENDBRANCH   1   3
BRANCH   1  25
ATOM     25  C   UNL     1      -2.379   0.095   0.632  1.00  0.00     0.084 C 
BRANCH  25  26
ATOM     26  C   UNL     1      -3.339   0.892  -0.170  1.00  0.00     0.013 C 
ATOM     27  C   UNL     1      -2.634   1.598  -1.328  1.00  0.00    -0.000 C 
ATOM     28  C   UNL     1      -3.790   0.637  -1.603  1.00  0.00    -0.028 C 
ATOM     29  C   UNL     1      -5.101   1.265  -2.024  1.00  0.00     0.012 C 
ATOM     30  C   UNL     1      -3.570  -0.713  -2.240  1.00  0.00     0.012 C 
BRANCH  27  31
ATOM     31  C   UNL     1      -1.191   1.266  -1.713  1.00  0.00     0.009 CG0
ATOM     32  G   UNL     1      -0.073   1.708  -0.704  1.00  0.00     0.000 G0
ENDBRANCH  27  31
ENDBRANCH  25  26
BRANCH  25  33
ATOM     33  C   UNL     1      -2.702  -0.877   1.697  1.00  0.00    -0.011 C 
ATOM     34  C   UNL     1      -1.699  -1.561   2.302  1.00  0.00    -0.017 CG1
ATOM     35  G   UNL     1      -0.186  -1.404   1.995  1.00  0.00     0.000 G1
BRANCH  34  36
ATOM     36  C   UNL     1      -1.976  -2.523   3.443  1.00  0.00     0.189 C 
BRANCH  36  37
ATOM     37  O   UNL     1      -3.367  -2.732   3.648  1.00  0.00    -0.392 OA
ATOM     38  H   UNL     1      -3.681  -3.224   2.866  1.00  0.00     0.211 HD
ENDBRANCH  36  37
ENDBRANCH  34  36
ENDBRANCH  25  33
ENDBRANCH   1  25
TORSDOF 7
