REMARK SMILES O[C@H]1[C@H](O)[C@@H](O)[C@H](O)[C@@H](O)[C@H]1O
REMARK SMILES IDX 7 1 5 2 3 3 2 4 11 5 9 6 8 7 6 9 10 11 4 13 12 15 1 17
REMARK H PARENT 8 8 6 10 10 12 4 14 12 16 1 18
ROOT
ATOM      1  C   UNL     1      -1.206   0.495   0.360  1.00  0.00     0.177 C 
ATOM      2  C   UNL     1      -0.965  -0.958  -0.066  1.00  0.00     0.177 C 
ATOM      3  C   UNL     1       0.516  -1.334   0.034  1.00  0.00     0.177 C 
ATOM      4  C   UNL     1       1.397  -0.360  -0.763  1.00  0.00     0.177 C 
ATOM      5  C   UNL     1       1.148   1.092  -0.332  1.00  0.00     0.177 C 
ATOM      6  C   UNL     1      -0.342   1.442  -0.485  1.00  0.00     0.177 C 
ENDROOT
BRANCH   1   7
ATOM      7  O   UNL     1      -2.599   0.799   0.169  1.00  0.00    -0.387 OA
ATOM      8  H   UNL     1      -2.775   1.584   0.722  1.00  0.00     0.211 HD
ENDBRANCH   1   7
BRANCH   2   9
ATOM      9  O   UNL     1      -1.727  -1.851   0.760  1.00  0.00    -0.387 OA
ATOM     10  H   UNL     1      -2.628  -1.470   0.784  1.00  0.00     0.211 HD
ENDBRANCH   2   9
BRANCH   6  11
ATOM     11  O   UNL     1      -0.595   2.799  -0.106  1.00  0.00    -0.387 OA
ATOM     12  H   UNL     1      -1.470   3.034  -0.460  1.00  0.00     0.211 HD
ENDBRANCH   6  11
BRANCH   3  13
ATOM     13  O   UNL     1       0.716  -2.659  -0.486  1.00  0.00    -0.387 OA
ATOM     14  H   UNL     1       0.030  -3.204  -0.048  1.00  0.00     0.211 HD
ENDBRANCH   3  13
BRANCH   5  15
ATOM     15  O   UNL     1       1.558   1.227   1.039  1.00  0.00    -0.387 OA
ATOM     16  H   UNL     1       2.486   0.916   1.055  1.00  0.00     0.211 HD
ENDBRANCH   5  15
BRANCH   4  17
ATOM     17  O   UNL     1       2.777  -0.686  -0.537  1.00  0.00    -0.387 OA
ATOM     18  H   UNL     1       2.829  -1.657  -0.655  1.00  0.00     0.211 HD
ENDBRANCH   4  17
TORSDOF 6
