REMARK SMILES CN(CC(O)CO)C(=O)c1c(I)c(NC(=O)C(CO)CO)c(I)c(C(=O)N(C)CC(O)CO)c1I
REMARK SMILES IDX 10 1 34 2 35 3 24 4 22 5 23 6 13 7 11 8 12 9 8 10 9 11 2 12
REMARK SMILES IDX 1 13 3 14 4 15 5 16 6 18 7 19 25 21 26 22 27 23 28 24 29 25
REMARK SMILES IDX 30 26 31 27 32 29 33 30 14 32 15 33 16 34 17 36 18 37 19 38
REMARK SMILES IDX 20 40 21 41
REMARK H PARENT 5 17 7 20 31 28 33 31 14 35 19 39 21 42
ROOT
ATOM      1  C   UNL     1       0.725  -0.914  -0.328  1.00  0.00     0.069 A 
ATOM      2  C   UNL     1      -0.380  -1.461  -1.009  1.00  0.00     0.041 A 
ATOM      3  I   UNL     1      -0.600  -3.587  -1.165  1.00  0.00    -0.042 I 
ATOM      4  C   UNL     1      -1.323  -0.598  -1.599  1.00  0.00     0.069 A 
ATOM      5  C   UNL     1      -1.146   0.800  -1.541  1.00  0.00     0.052 A 
ATOM      6  I   UNL     1      -2.322   2.065  -2.833  1.00  0.00    -0.041 I 
ATOM      7  C   UNL     1      -0.091   1.348  -0.781  1.00  0.00     0.069 A 
ATOM      8  C   UNL     1       0.865   0.482  -0.207  1.00  0.00     0.052 A 
ATOM      9  I   UNL     1       2.503   1.330   0.883  1.00  0.00    -0.041 I 
ENDROOT
BRANCH   1  10
ATOM     10  C   UNL     1       1.686  -1.809   0.346  1.00  0.00     0.255 C 
ATOM     11  O   UNL     1       1.486  -2.058   1.533  1.00  0.00    -0.269 OA
BRANCH  10  12
ATOM     12  N   UNL     1       2.746  -2.332  -0.394  1.00  0.00    -0.339 N 
ATOM     13  C   UNL     1       3.145  -1.845  -1.709  1.00  0.00     0.147 C 
BRANCH  12  14
ATOM     14  C   UNL     1       3.703  -3.194   0.313  1.00  0.00     0.153 C 
BRANCH  14  15
ATOM     15  C   UNL     1       4.840  -2.403   0.984  1.00  0.00     0.159 C 
BRANCH  15  16
ATOM     16  O   UNL     1       5.821  -2.041  -0.006  1.00  0.00    -0.389 OA
ATOM     17  H   UNL     1       6.339  -2.861  -0.150  1.00  0.00     0.211 HD
ENDBRANCH  15  16
BRANCH  15  18
ATOM     18  C   UNL     1       5.541  -3.241   2.058  1.00  0.00     0.189 C 
BRANCH  18  19
ATOM     19  O   UNL     1       6.144  -4.383   1.446  1.00  0.00    -0.394 OA
ATOM     20  H   UNL     1       6.571  -4.891   2.159  1.00  0.00     0.210 HD
ENDBRANCH  18  19
ENDBRANCH  15  18
ENDBRANCH  14  15
ENDBRANCH  12  14
ENDBRANCH  10  12
ENDBRANCH   1  10
BRANCH   4  21
ATOM     21  C   UNL     1      -2.508  -1.153  -2.288  1.00  0.00     0.255 C 
ATOM     22  O   UNL     1      -2.340  -1.585  -3.426  1.00  0.00    -0.269 OA
BRANCH  21  23
ATOM     23  N   UNL     1      -3.733  -1.143  -1.614  1.00  0.00    -0.339 N 
ATOM     24  C   UNL     1      -4.867  -1.789  -2.255  1.00  0.00     0.147 C 
BRANCH  23  25
ATOM     25  C   UNL     1      -3.907  -0.746  -0.203  1.00  0.00     0.153 C 
BRANCH  25  26
ATOM     26  C   UNL     1      -3.905  -1.950   0.764  1.00  0.00     0.159 C 
BRANCH  26  27
ATOM     27  O   UNL     1      -5.246  -2.400   1.003  1.00  0.00    -0.389 OA
ATOM     28  H   UNL     1      -5.748  -1.661   1.390  1.00  0.00     0.211 HD
ENDBRANCH  26  27
BRANCH  26  29
ATOM     29  C   UNL     1      -3.226  -1.619   2.102  1.00  0.00     0.189 C 
BRANCH  29  30
ATOM     30  O   UNL     1      -1.888  -1.181   1.894  1.00  0.00    -0.394 OA
ATOM     31  H   UNL     1      -1.348  -1.495   2.643  1.00  0.00     0.210 HD
ENDBRANCH  29  30
ENDBRANCH  26  29
ENDBRANCH  25  26
ENDBRANCH  23  25
ENDBRANCH  21  23
ENDBRANCH   4  21
BRANCH   7  32
ATOM     32  N   UNL     1       0.052   2.744  -0.574  1.00  0.00    -0.324 N 
ATOM     33  C   UNL     1      -0.931   3.502   0.050  1.00  0.00     0.232 C 
ATOM     34  O   UNL     1      -2.040   3.074   0.360  1.00  0.00    -0.274 OA
ATOM     35  H   UNL     1       0.999   3.080  -0.381  1.00  0.00     0.170 HD
BRANCH  33  36
ATOM     36  C   UNL     1      -0.460   4.903   0.443  1.00  0.00     0.130 C 
BRANCH  36  37
ATOM     37  C   UNL     1      -1.661   5.735   0.891  1.00  0.00     0.172 C 
BRANCH  37  38
ATOM     38  O   UNL     1      -1.240   6.999   1.396  1.00  0.00    -0.395 OA
ATOM     39  H   UNL     1      -0.867   6.851   2.283  1.00  0.00     0.210 HD
ENDBRANCH  37  38
ENDBRANCH  36  37
BRANCH  36  40
ATOM     40  C   UNL     1       0.290   5.595  -0.697  1.00  0.00     0.172 C 
BRANCH  40  41
ATOM     41  O   UNL     1       1.583   4.994  -0.849  1.00  0.00    -0.395 OA
ATOM     42  H   UNL     1       2.051   5.533  -1.515  1.00  0.00     0.210 HD
ENDBRANCH  40  41
ENDBRANCH  36  40
ENDBRANCH  33  36
ENDBRANCH   7  32
TORSDOF 20
