REMARK SMILES CC(=O)N(CC(C)C(=O)O)c1c(I)cc(I)c(N)c1I
REMARK SMILES IDX 5 1 6 2 7 3 8 4 9 5 10 6 4 8 2 9 3 10 1 11 11 12 19 13 12 14
REMARK SMILES IDX 17 15 14 16 15 17 20 18 13 19 16 20 18 21
REMARK H PARENT 10 7 18 22 18 23
ROOT
ATOM      1  C   UNL     1      -1.137   0.571   0.684  1.00  0.00     0.140 C 
ENDROOT
BRANCH   1   2
ATOM      2  C   UNL     1      -1.767  -0.828   0.712  1.00  0.00     0.116 C 
ATOM      3  C   UNL     1      -2.843  -1.042  -0.346  1.00  0.00     0.022 C 
BRANCH   2   4
ATOM      4  C   UNL     1      -2.362  -1.072   2.077  1.00  0.00     0.308 C 
ATOM      5  O   UNL     1      -2.115  -2.019   2.804  1.00  0.00    -0.252 OA
BRANCH   4   6
ATOM      6  O   UNL     1      -3.249  -0.134   2.457  1.00  0.00    -0.481 OA
ATOM      7  H   UNL     1      -3.565  -0.443   3.334  1.00  0.00     0.296 HD
ENDBRANCH   4   6
ENDBRANCH   2   4
ENDBRANCH   1   2
BRANCH   1   8
ATOM      8  N   UNL     1      -0.180   0.790  -0.427  1.00  0.00    -0.310 N 
BRANCH   8   9
ATOM      9  C   UNL     1      -0.405   1.631  -1.521  1.00  0.00     0.223 C 
ATOM     10  O   UNL     1       0.474   1.936  -2.330  1.00  0.00    -0.275 OA
ATOM     11  C   UNL     1      -1.791   2.200  -1.686  1.00  0.00     0.115 C 
ENDBRANCH   8   9
BRANCH   8  12
ATOM     12  C   UNL     1       1.185   0.410  -0.179  1.00  0.00     0.073 A 
ATOM     13  C   UNL     1       1.754  -0.724  -0.813  1.00  0.00     0.062 A 
ATOM     14  C   UNL     1       2.009   1.186   0.664  1.00  0.00     0.039 A 
ATOM     15  C   UNL     1       3.076  -1.149  -0.523  1.00  0.00     0.061 A 
ATOM     16  C   UNL     1       3.329   0.805   0.921  1.00  0.00     0.034 A 
ATOM     17  C   UNL     1       3.853  -0.346   0.331  1.00  0.00     0.038 A 
ATOM     18  I   UNL     1       0.636  -1.870  -2.240  1.00  0.00    -0.040 I 
ATOM     19  I   UNL     1       1.418   3.032   1.517  1.00  0.00    -0.042 I 
ATOM     20  I   UNL     1       5.854  -0.827   0.778  1.00  0.00    -0.042 I 
BRANCH  15  21
ATOM     21  N   UNL     1       3.671  -2.218  -1.227  1.00  0.00    -0.397 N 
ATOM     22  H   UNL     1       4.470  -2.632  -0.755  1.00  0.00     0.156 HD
ATOM     23  H   UNL     1       3.007  -2.900  -1.582  1.00  0.00     0.156 HD
ENDBRANCH  15  21
ENDBRANCH   8  12
ENDBRANCH   1   8
TORSDOF 7
