REMARK SMILES CCC(COCCOc1c(I)cc(I)c(NC(C)=O)c1I)C(=O)O
REMARK SMILES IDX 5 1 4 2 3 3 2 4 1 5 22 6 23 7 24 8 6 10 7 11 8 12 9 13 10 14
REMARK SMILES IDX 20 15 12 16 15 17 13 18 11 19 21 20 14 21 16 22 17 23 19 24
REMARK SMILES IDX 18 26
REMARK H PARENT 24 9 16 25
ROOT
ATOM      1  O   UNL     1      -2.220   1.818   0.177  1.00  0.00    -0.377 OA
ENDROOT
BRANCH   1   2
ATOM      2  C   UNL     1      -3.129   1.036  -0.604  1.00  0.00     0.175 C 
BRANCH   2   3
ATOM      3  C   UNL     1      -4.301   0.605   0.279  1.00  0.00     0.124 C 
BRANCH   3   4
ATOM      4  C   UNL     1      -3.876  -0.431   1.331  1.00  0.00     0.014 C 
ATOM      5  C   UNL     1      -4.981  -0.729   2.337  1.00  0.00     0.005 C 
ENDBRANCH   3   4
BRANCH   3   6
ATOM      6  C   UNL     1      -5.408   0.081  -0.600  1.00  0.00     0.308 C 
ATOM      7  O   UNL     1      -6.556   0.492  -0.627  1.00  0.00    -0.252 OA
BRANCH   6   8
ATOM      8  O   UNL     1      -5.038  -0.946  -1.389  1.00  0.00    -0.481 OA
ATOM      9  H   UNL     1      -5.864  -1.182  -1.865  1.00  0.00     0.296 HD
ENDBRANCH   6   8
ENDBRANCH   3   6
ENDBRANCH   2   3
ENDBRANCH   1   2
BRANCH   1  10
ATOM     10  C   UNL     1      -1.076   2.245  -0.563  1.00  0.00     0.201 C 
BRANCH  10  11
ATOM     11  C   UNL     1       0.028   1.190  -0.568  1.00  0.00     0.258 C 
BRANCH  11  12
ATOM     12  O   UNL     1       1.125   1.690  -1.349  1.00  0.00    -0.489 OA
BRANCH  12  13
ATOM     13  C   UNL     1       2.115   0.744  -1.454  1.00  0.00     0.148 A 
ATOM     14  C   UNL     1       2.158  -0.085  -2.584  1.00  0.00     0.057 A 
ATOM     15  C   UNL     1       3.142   0.665  -0.489  1.00  0.00     0.081 A 
ATOM     16  C   UNL     1       3.186  -1.015  -2.737  1.00  0.00     0.035 A 
ATOM     17  C   UNL     1       4.144  -0.326  -0.596  1.00  0.00     0.072 A 
ATOM     18  C   UNL     1       4.170  -1.133  -1.751  1.00  0.00     0.039 A 
ATOM     19  I   UNL     1       0.748   0.056  -4.134  1.00  0.00    -0.040 I 
ATOM     20  I   UNL     1       3.321   2.268   0.926  1.00  0.00    -0.038 I 
ATOM     21  I   UNL     1       5.662  -2.588  -2.065  1.00  0.00    -0.042 I 
BRANCH  17  22
ATOM     22  N   UNL     1       5.147  -0.529   0.389  1.00  0.00    -0.324 N 
ATOM     23  C   UNL     1       4.821  -0.795   1.712  1.00  0.00     0.221 C 
ATOM     24  O   UNL     1       3.683  -0.886   2.160  1.00  0.00    -0.275 OA
ATOM     25  H   UNL     1       5.967  -1.036   0.070  1.00  0.00     0.169 HD
ATOM     26  C   UNL     1       6.031  -1.050   2.571  1.00  0.00     0.114 C 
ENDBRANCH  17  22
ENDBRANCH  12  13
ENDBRANCH  11  12
ENDBRANCH  10  11
ENDBRANCH   1  10
TORSDOF 10
