REMARK SMILES Nc1nc(N)nc(-c2cc(Cl)ccc2Cl)n1
REMARK SMILES IDX 2 1 16 2 7 3 6 4 4 5 3 6 1 7 8 10 14 11 9 12 13 13 10 14
REMARK SMILES IDX 12 15 15 16 11 17 5 18
REMARK H PARENT 1 8 1 9 5 19 5 20
ROOT
ATOM      1  C   UNL     1      -2.356   1.190  -0.069  1.00  0.00     0.225 A 
ATOM      2  N   UNL     1      -1.047   1.205  -0.249  1.00  0.00    -0.193 NA
ATOM      3  C   UNL     1      -0.431   0.065   0.053  1.00  0.00     0.168 A 
ATOM      4  N   UNL     1      -1.037  -1.045   0.473  1.00  0.00    -0.193 NA
ATOM      5  C   UNL     1      -2.343  -0.929   0.640  1.00  0.00     0.225 A 
ATOM      6  N   UNL     1      -3.051   0.158   0.379  1.00  0.00    -0.177 NA
ENDROOT
BRANCH   1   7
ATOM      7  N   UNL     1      -3.046   2.354  -0.344  1.00  0.00    -0.368 N 
ATOM      8  H   UNL     1      -2.426   3.150  -0.274  1.00  0.00     0.159 HD
ATOM      9  H   UNL     1      -3.900   2.389   0.195  1.00  0.00     0.159 HD
ENDBRANCH   1   7
BRANCH   3  10
ATOM     10  C   UNL     1       1.018  -0.009  -0.163  1.00  0.00     0.040 A 
ATOM     11  C   UNL     1       1.927   0.946   0.333  1.00  0.00     0.052 A 
ATOM     12  C   UNL     1       1.545  -1.090  -0.904  1.00  0.00     0.034 A 
ATOM     13  C   UNL     1       3.302   0.830   0.080  1.00  0.00     0.023 A 
ATOM     14  C   UNL     1       2.914  -1.199  -1.150  1.00  0.00     0.041 A 
ATOM     15  C   UNL     1       3.795  -0.241  -0.664  1.00  0.00     0.022 A 
ATOM     16  Cl  UNL     1       1.433   2.280   1.322  1.00  0.00    -0.084 Cl
ATOM     17  Cl  UNL     1       3.515  -2.528  -2.063  1.00  0.00    -0.084 Cl
ENDBRANCH   3  10
BRANCH   5  18
ATOM     18  N   UNL     1      -3.027  -2.041   1.088  1.00  0.00    -0.368 N 
ATOM     19  H   UNL     1      -3.996  -1.999   0.804  1.00  0.00     0.159 HD
ATOM     20  H   UNL     1      -2.517  -2.886   0.876  1.00  0.00     0.159 HD
ENDBRANCH   5  18
TORSDOF 3
