REMARK SMILES NNC(=O)c1ccncc1
REMARK SMILES IDX 2 1 3 2 4 3 1 5 5 8 6 9 10 10 7 11 9 12 8 13
REMARK H PARENT 2 4 1 6 1 7
ROOT
ATOM      1  N   UNL     1       2.037   0.436   0.055  1.00  0.00    -0.290 N 
ATOM      2  C   UNL     1       1.119  -0.546   0.410  1.00  0.00     0.265 C 
ATOM      3  O   UNL     1       1.451  -1.680   0.748  1.00  0.00    -0.268 OA
ATOM      4  H   UNL     1       1.738   1.273  -0.440  1.00  0.00     0.184 HD
ENDROOT
BRANCH   1   5
ATOM      5  N   UNL     1       3.410   0.103   0.014  1.00  0.00    -0.248 NA
ATOM      6  H   UNL     1       3.467  -0.885  -0.271  1.00  0.00     0.143 HD
ATOM      7  H   UNL     1       3.743   0.076   0.984  1.00  0.00     0.143 HD
ENDBRANCH   1   5
BRANCH   2   8
ATOM      8  C   UNL     1      -0.318  -0.176   0.328  1.00  0.00     0.044 A 
ATOM      9  C   UNL     1      -1.252  -1.198   0.150  1.00  0.00     0.034 A 
ATOM     10  C   UNL     1      -0.756   1.143   0.453  1.00  0.00     0.034 A 
ATOM     11  C   UNL     1      -2.588  -0.854   0.077  1.00  0.00     0.112 A 
ATOM     12  C   UNL     1      -2.116   1.382   0.369  1.00  0.00     0.112 A 
ATOM     13  N   UNL     1      -3.038   0.415   0.176  1.00  0.00    -0.265 NA
ENDBRANCH   2   8
TORSDOF 2
