REMARK SMILES O=C(O)Cc1ccc2c(c1)C(=O)c1ccccc1CO2
REMARK SMILES IDX 2 1 1 2 3 3 4 5 5 6 10 7 6 8 9 9 7 10 8 11 11 12 20 13 13 14
REMARK SMILES IDX 12 15 19 16 14 17 18 18 15 19 17 20 16 21
REMARK H PARENT 3 4
ROOT
ATOM      1  C   UNL     1      -4.786   0.470   0.011  1.00  0.00     0.307 C 
ATOM      2  O   UNL     1      -4.444   0.717   1.155  1.00  0.00    -0.252 OA
ENDROOT
BRANCH   1   3
ATOM      3  O   UNL     1      -5.996   0.875  -0.432  1.00  0.00    -0.481 OA
ATOM      4  H   UNL     1      -6.380   1.346   0.339  1.00  0.00     0.296 HD
ENDBRANCH   1   3
BRANCH   1   5
ATOM      5  C   UNL     1      -4.025  -0.284  -1.052  1.00  0.00     0.158 C 
BRANCH   5   6
ATOM      6  C   UNL     1      -2.618  -0.656  -0.648  1.00  0.00    -0.036 A 
ATOM      7  C   UNL     1      -1.542   0.194  -0.948  1.00  0.00     0.020 A 
ATOM      8  C   UNL     1      -2.367  -1.828   0.066  1.00  0.00     0.008 A 
ATOM      9  C   UNL     1      -0.219  -0.116  -0.567  1.00  0.00     0.065 A 
ATOM     10  C   UNL     1      -1.064  -2.151   0.443  1.00  0.00     0.047 A 
ATOM     11  C   UNL     1       0.013  -1.318   0.110  1.00  0.00     0.131 A 
ATOM     12  C   UNL     1       0.807   0.921  -0.883  1.00  0.00     0.197 C 
ATOM     13  O   UNL     1       1.220  -1.806   0.531  1.00  0.00    -0.488 OA
ATOM     14  C   UNL     1       2.168   0.940  -0.296  1.00  0.00     0.029 A 
ATOM     15  O   UNL     1       0.512   1.840  -1.649  1.00  0.00    -0.288 OA
ATOM     16  C   UNL     1       2.295  -1.561  -0.367  1.00  0.00     0.266 C 
ATOM     17  C   UNL     1       2.748   2.191  -0.031  1.00  0.00     0.012 A 
ATOM     18  C   UNL     1       2.893  -0.229  -0.049  1.00  0.00     0.000 A 
ATOM     19  C   UNL     1       4.032   2.275   0.506  1.00  0.00     0.001 A 
ATOM     20  C   UNL     1       4.183  -0.134   0.496  1.00  0.00     0.008 A 
ATOM     21  C   UNL     1       4.748   1.112   0.774  1.00  0.00     0.000 A 
ENDBRANCH   5   6
ENDBRANCH   1   5
TORSDOF 3
