REMARK SMILES Cc1cc(NC(=O)C2=C(O)c3ccccc3S(=O)(=O)N2C)no1
REMARK SMILES IDX 21 1 20 2 8 3 9 4 11 5 12 6 13 7 14 8 15 9 16 10 17 11 18 12
REMARK SMILES IDX 19 13 6 14 7 15 5 16 4 18 22 19 3 20 23 21 2 22 1 23 10 24
REMARK H PARENT 5 17 10 25
ROOT
ATOM      1  C   UNL     1      -0.413   1.660   2.530  1.00  0.00     0.164 C 
ATOM      2  N   UNL     1      -1.153   1.002   1.433  1.00  0.00    -0.261 N 
ATOM      3  C   UNL     1      -0.440   0.253   0.408  1.00  0.00     0.159 C 
ATOM      4  C   UNL     1      -1.181  -0.239  -0.615  1.00  0.00     0.154 C 
ATOM      5  C   UNL     1      -2.647  -0.066  -0.731  1.00  0.00     0.039 A 
ATOM      6  C   UNL     1      -3.303  -0.077  -1.972  1.00  0.00     0.013 A 
ATOM      7  C   UNL     1      -4.694   0.059  -2.047  1.00  0.00     0.001 A 
ATOM      8  C   UNL     1      -5.452   0.216  -0.886  1.00  0.00     0.001 A 
ATOM      9  C   UNL     1      -4.820   0.247   0.354  1.00  0.00     0.023 A 
ATOM     10  C   UNL     1      -3.431   0.098   0.412  1.00  0.00     0.099 A 
ATOM     11  S   UNL     1      -2.586   0.233   1.946  1.00  0.00     0.265 S 
ATOM     12  O   UNL     1      -3.330   1.162   2.770  1.00  0.00    -0.201 OA
ATOM     13  O   UNL     1      -2.278  -1.107   2.396  1.00  0.00    -0.201 OA
ENDROOT
BRANCH   3  14
ATOM     14  C   UNL     1       1.066   0.055   0.511  1.00  0.00     0.278 C 
ATOM     15  O   UNL     1       1.640   0.137   1.594  1.00  0.00    -0.267 OA
ATOM     16  N   UNL     1       1.699  -0.187  -0.681  1.00  0.00    -0.302 N 
ATOM     17  H   UNL     1       1.147  -0.307  -1.524  1.00  0.00     0.172 HD
BRANCH  16  18
ATOM     18  C   UNL     1       3.050  -0.382  -0.855  1.00  0.00     0.176 A 
ATOM     19  N   UNL     1       3.527  -0.655  -2.075  1.00  0.00    -0.062 NA
ATOM     20  C   UNL     1       4.094  -0.340   0.095  1.00  0.00     0.095 A 
ATOM     21  O   UNL     1       4.894  -0.795  -1.930  1.00  0.00    -0.360 OA
ATOM     22  C   UNL     1       5.230  -0.606  -0.627  1.00  0.00     0.135 A 
ATOM     23  C   UNL     1       6.660  -0.722  -0.293  1.00  0.00     0.091 C 
ENDBRANCH  16  18
ENDBRANCH   3  14
BRANCH   4  24
ATOM     24  O   UNL     1      -0.602  -0.988  -1.630  1.00  0.00    -0.505 OA
ATOM     25  H   UNL     1      -1.265  -1.629  -1.953  1.00  0.00     0.293 HD
ENDBRANCH   4  24
TORSDOF 3
