REMARK SMILES CCOC(C)C(=O)C(O)O
REMARK SMILES IDX 6 1 7 2 4 3 5 4 3 5 2 6 1 7 8 8 9 9 10 11
REMARK H PARENT 9 10 10 12
ROOT
ATOM      1  C   UNL     1       1.137  -0.884  -0.581  1.00  0.00     0.216 C 
ATOM      2  O   UNL     1       1.538  -1.846  -1.247  1.00  0.00    -0.291 OA
ENDROOT
BRANCH   1   3
ATOM      3  C   UNL     1       0.108  -1.063   0.538  1.00  0.00     0.187 C 
ATOM      4  C   UNL     1       0.853  -1.307   1.845  1.00  0.00     0.047 C 
BRANCH   3   5
ATOM      5  O   UNL     1      -0.745   0.058   0.732  1.00  0.00    -0.371 OA
BRANCH   5   6
ATOM      6  C   UNL     1      -1.845   0.072  -0.179  1.00  0.00     0.157 C 
ATOM      7  C   UNL     1      -2.610   1.366   0.018  1.00  0.00     0.035 C 
ENDBRANCH   5   6
ENDBRANCH   3   5
ENDBRANCH   1   3
BRANCH   1   8
ATOM      8  C   UNL     1       1.713   0.529  -0.796  1.00  0.00     0.316 C 
BRANCH   8   9
ATOM      9  O   UNL     1       0.857   1.342  -1.563  1.00  0.00    -0.362 OA
ATOM     10  H   UNL     1       1.055   2.253  -1.291  1.00  0.00     0.214 HD
ENDBRANCH   8   9
BRANCH   8  11
ATOM     11  O   UNL     1       2.952   0.478  -1.473  1.00  0.00    -0.362 OA
ATOM     12  H   UNL     1       2.860  -0.266  -2.100  1.00  0.00     0.214 HD
ENDBRANCH   8  11
ENDBRANCH   1   8
TORSDOF 6
