REMARK SMILES CC(C(=O)O)c1cccc(C(=O)c2ccccc2)c1
REMARK SMILES IDX 1 1 2 2 3 3 4 4 5 5 6 7 7 8 19 9 8 10 10 11 9 12 11 13 12 14
REMARK SMILES IDX 13 15 14 16 18 17 15 18 17 19 16 20
REMARK H PARENT 5 6
ROOT
ATOM      1  C   UNL     1      -2.855   2.758  -1.505  1.00  0.00     0.025 C 
ATOM      2  C   UNL     1      -3.153   1.457  -0.754  1.00  0.00     0.126 C 
ENDROOT
BRANCH   2   3
ATOM      3  C   UNL     1      -3.604   0.368  -1.717  1.00  0.00     0.310 C 
ATOM      4  O   UNL     1      -3.131  -0.747  -1.865  1.00  0.00    -0.252 OA
BRANCH   3   5
ATOM      5  O   UNL     1      -4.688   0.729  -2.438  1.00  0.00    -0.481 OA
ATOM      6  H   UNL     1      -4.868  -0.058  -2.995  1.00  0.00     0.296 HD
ENDBRANCH   3   5
ENDBRANCH   2   3
BRANCH   2   7
ATOM      7  C   UNL     1      -1.971   1.029   0.106  1.00  0.00    -0.033 A 
ATOM      8  C   UNL     1      -2.143   0.826   1.485  1.00  0.00     0.004 A 
ATOM      9  C   UNL     1      -0.697   0.822  -0.448  1.00  0.00     0.016 A 
ATOM     10  C   UNL     1      -1.070   0.440   2.291  1.00  0.00     0.001 A 
ATOM     11  C   UNL     1       0.375   0.415   0.356  1.00  0.00     0.023 A 
ATOM     12  C   UNL     1       0.191   0.240   1.731  1.00  0.00     0.012 A 
BRANCH  11  13
ATOM     13  C   UNL     1       1.702   0.225  -0.279  1.00  0.00     0.193 C 
ATOM     14  O   UNL     1       2.055   0.996  -1.167  1.00  0.00    -0.289 OA
BRANCH  13  15
ATOM     15  C   UNL     1       2.610  -0.872   0.142  1.00  0.00     0.022 A 
ATOM     16  C   UNL     1       3.991  -0.654   0.083  1.00  0.00     0.012 A 
ATOM     17  C   UNL     1       2.118  -2.118   0.550  1.00  0.00     0.012 A 
ATOM     18  C   UNL     1       4.876  -1.665   0.463  1.00  0.00     0.001 A 
ATOM     19  C   UNL     1       3.006  -3.127   0.928  1.00  0.00     0.001 A 
ATOM     20  C   UNL     1       4.382  -2.899   0.889  1.00  0.00     0.000 A 
ENDBRANCH  13  15
ENDBRANCH  11  13
ENDBRANCH   2   7
TORSDOF 5
