REMARK SMILES CCOC(=O)C1=C(C)NC(C)=C(C(=O)OCC)C1c1ccccc1/C=C/C(=O)OC(C)(C)C
REMARK SMILES IDX 19 1 24 2 23 3 22 4 21 5 20 6 18 7 6 8 7 9 9 10 12 11 10 12
REMARK SMILES IDX 8 13 11 15 4 16 5 17 3 18 2 19 1 20 13 21 14 22 15 23 16 24
REMARK SMILES IDX 17 25 25 26 26 27 27 28 28 29 29 30 30 31 31 32 32 33 33 34
REMARK H PARENT 9 14
ROOT
ATOM      1  C   UNL     1      -0.863   0.201  -1.259  1.00  0.00    -0.028 A 
ATOM      2  C   UNL     1       0.358  -0.124  -1.889  1.00  0.00    -0.021 A 
ATOM      3  C   UNL     1       0.440  -0.115  -3.291  1.00  0.00     0.008 A 
ATOM      4  C   UNL     1      -0.668   0.216  -4.070  1.00  0.00     0.001 A 
ATOM      5  C   UNL     1      -1.873   0.542  -3.459  1.00  0.00     0.000 A 
ATOM      6  C   UNL     1      -1.972   0.534  -2.068  1.00  0.00     0.005 A 
ENDROOT
BRANCH   1   7
ATOM      7  C   UNL     1      -1.024   0.204   0.271  1.00  0.00     0.098 C 
ATOM      8  C   UNL     1      -1.377   1.595   0.785  1.00  0.00     0.068 C 
ATOM      9  C   UNL     1      -2.509   1.831   1.487  1.00  0.00     0.023 C 
ATOM     10  N   UNL     1      -3.389   0.787   1.735  1.00  0.00    -0.362 N 
ATOM     11  C   UNL     1      -2.029  -0.855   0.711  1.00  0.00     0.068 C 
ATOM     12  C   UNL     1      -3.142  -0.539   1.410  1.00  0.00     0.023 C 
ATOM     13  C   UNL     1      -2.882   3.162   2.087  1.00  0.00     0.065 C 
ATOM     14  H   UNL     1      -4.190   0.981   2.331  1.00  0.00     0.166 HD
ATOM     15  C   UNL     1      -4.148  -1.538   1.921  1.00  0.00     0.065 C 
BRANCH   8  16
ATOM     16  C   UNL     1      -0.373   2.638   0.492  1.00  0.00     0.336 C 
ATOM     17  O   UNL     1       0.815   2.527   0.749  1.00  0.00    -0.246 OA
BRANCH  16  18
ATOM     18  O   UNL     1      -0.964   3.677  -0.150  1.00  0.00    -0.463 OA
BRANCH  18  19
ATOM     19  C   UNL     1      -0.056   4.705  -0.559  1.00  0.00     0.230 C 
ATOM     20  C   UNL     1      -0.858   5.791  -1.249  1.00  0.00     0.049 C 
ENDBRANCH  18  19
ENDBRANCH  16  18
ENDBRANCH   8  16
BRANCH  11  21
ATOM     21  C   UNL     1      -1.673  -2.239   0.348  1.00  0.00     0.336 C 
ATOM     22  O   UNL     1      -0.620  -2.772   0.661  1.00  0.00    -0.246 OA
BRANCH  21  23
ATOM     23  O   UNL     1      -2.650  -2.774  -0.426  1.00  0.00    -0.463 OA
BRANCH  23  24
ATOM     24  C   UNL     1      -2.353  -4.083  -0.923  1.00  0.00     0.230 C 
ATOM     25  C   UNL     1      -3.459  -4.484  -1.878  1.00  0.00     0.049 C 
ENDBRANCH  23  24
ENDBRANCH  21  23
ENDBRANCH  11  21
ENDBRANCH   1   7
BRANCH   2  26
ATOM     26  C   UNL     1       1.553  -0.490  -1.120  1.00  0.00     0.016 C 
ATOM     27  C   UNL     1       2.659   0.269  -1.128  1.00  0.00     0.094 C 
BRANCH  27  28
ATOM     28  C   UNL     1       3.869  -0.027  -0.333  1.00  0.00     0.331 C 
ATOM     29  O   UNL     1       4.925   0.556  -0.527  1.00  0.00    -0.247 OA
BRANCH  28  30
ATOM     30  O   UNL     1       3.621  -0.976   0.597  1.00  0.00    -0.457 OA
BRANCH  30  31
ATOM     31  C   UNL     1       4.643  -1.382   1.540  1.00  0.00     0.104 C 
ATOM     32  C   UNL     1       3.956  -2.427   2.432  1.00  0.00     0.056 C 
ATOM     33  C   UNL     1       5.091  -0.206   2.416  1.00  0.00     0.056 C 
ATOM     34  C   UNL     1       5.823  -2.047   0.824  1.00  0.00     0.056 C 
ENDBRANCH  30  31
ENDBRANCH  28  30
ENDBRANCH  27  28
ENDBRANCH   2  26
TORSDOF 11
