REMARK SMILES COC[C@@H](NC(C)=O)C(=O)NCc1ccccc1
REMARK SMILES IDX 4 1 3 2 2 3 1 4 5 5 6 6 8 7 7 9 9 10 10 11 11 12 12 14 13 15
REMARK SMILES IDX 14 16 18 17 15 18 17 19 16 20
REMARK H PARENT 5 8 11 13
ROOT
ATOM      1  C   UNL     1      -1.842   0.570   0.247  1.00  0.00     0.197 C 
ENDROOT
BRANCH   1   2
ATOM      2  C   UNL     1      -2.706   1.640  -0.428  1.00  0.00     0.194 C 
BRANCH   2   3
ATOM      3  O   UNL     1      -3.433   2.367   0.568  1.00  0.00    -0.382 OA
ATOM      4  C   UNL     1      -4.191   3.426  -0.002  1.00  0.00     0.195 C 
ENDBRANCH   2   3
ENDBRANCH   1   2
BRANCH   1   5
ATOM      5  N   UNL     1      -1.449  -0.480  -0.706  1.00  0.00    -0.343 N 
ATOM      6  C   UNL     1      -1.096  -1.731  -0.251  1.00  0.00     0.217 C 
ATOM      7  O   UNL     1      -1.184  -2.067   0.927  1.00  0.00    -0.275 OA
ATOM      8  H   UNL     1      -0.989  -0.164  -1.552  1.00  0.00     0.164 HD
ATOM      9  C   UNL     1      -0.551  -2.645  -1.314  1.00  0.00     0.114 C 
ENDBRANCH   1   5
BRANCH   1  10
ATOM     10  C   UNL     1      -0.528   1.174   0.776  1.00  0.00     0.245 C 
ATOM     11  O   UNL     1       0.018   2.153   0.270  1.00  0.00    -0.273 OA
ATOM     12  N   UNL     1       0.054   0.413   1.775  1.00  0.00    -0.350 N 
ATOM     13  H   UNL     1      -0.334  -0.520   1.908  1.00  0.00     0.163 HD
BRANCH  12  14
ATOM     14  C   UNL     1       1.436   0.596   2.147  1.00  0.00     0.151 C 
BRANCH  14  15
ATOM     15  C   UNL     1       2.334  -0.241   1.270  1.00  0.00    -0.029 A 
ATOM     16  C   UNL     1       2.538  -1.600   1.549  1.00  0.00     0.005 A 
ATOM     17  C   UNL     1       2.931   0.314   0.129  1.00  0.00     0.005 A 
ATOM     18  C   UNL     1       3.341  -2.381   0.716  1.00  0.00     0.000 A 
ATOM     19  C   UNL     1       3.734  -0.468  -0.703  1.00  0.00     0.000 A 
ATOM     20  C   UNL     1       3.941  -1.814  -0.408  1.00  0.00     0.000 A 
ENDBRANCH  14  15
ENDBRANCH  12  14
ENDBRANCH   1  10
TORSDOF 6
