REMARK SMILES Nc1nnc(-c2cccc(Cl)c2Cl)c(N)n1
REMARK SMILES IDX 2 1 3 2 4 3 5 4 14 5 16 6 1 7 15 10 6 13 12 14 7 15 10 16
REMARK SMILES IDX 8 17 9 18 13 19 11 20
REMARK H PARENT 1 8 1 9 15 11 15 12
ROOT
ATOM      1  C   UNL     1       3.193  -0.568   0.541  1.00  0.00     0.242 A 
ATOM      2  N   UNL     1       2.347  -0.946   1.518  1.00  0.00    -0.111 NA
ATOM      3  N   UNL     1       1.010  -0.748   1.365  1.00  0.00    -0.143 NA
ATOM      4  C   UNL     1       0.564  -0.187   0.222  1.00  0.00     0.137 A 
ATOM      5  C   UNL     1       1.483   0.193  -0.763  1.00  0.00     0.156 A 
ATOM      6  N   UNL     1       2.803  -0.010  -0.607  1.00  0.00    -0.193 NA
ENDROOT
BRANCH   1   7
ATOM      7  N   UNL     1       4.549  -0.798   0.700  1.00  0.00    -0.366 N 
ATOM      8  H   UNL     1       4.990  -0.831  -0.210  1.00  0.00     0.159 HD
ATOM      9  H   UNL     1       4.707  -1.580   1.319  1.00  0.00     0.159 HD
ENDBRANCH   1   7
BRANCH   5  10
ATOM     10  N   UNL     1       1.095   0.798  -1.972  1.00  0.00    -0.382 N 
ATOM     11  H   UNL     1       0.564   1.645  -1.791  1.00  0.00     0.158 HD
ATOM     12  H   UNL     1       0.503   0.159  -2.499  1.00  0.00     0.158 HD
ENDBRANCH   5  10
BRANCH   4  13
ATOM     13  C   UNL     1      -0.886   0.031   0.155  1.00  0.00     0.026 A 
ATOM     14  C   UNL     1      -1.732  -0.644  -0.751  1.00  0.00     0.069 A 
ATOM     15  C   UNL     1      -1.468   0.949   1.055  1.00  0.00     0.012 A 
ATOM     16  C   UNL     1      -3.114  -0.378  -0.756  1.00  0.00     0.060 A 
ATOM     17  C   UNL     1      -2.838   1.207   1.046  1.00  0.00     0.002 A 
ATOM     18  C   UNL     1      -3.659   0.547   0.138  1.00  0.00     0.022 A 
ATOM     19  Cl  UNL     1      -1.070  -1.817  -1.851  1.00  0.00    -0.082 Cl
ATOM     20  Cl  UNL     1      -4.207  -1.156  -1.848  1.00  0.00    -0.083 Cl
ENDBRANCH   4  13
TORSDOF 3
