REMARK SMILES N#C/C(=C1/SCC(c2ccccc2Cl)S1)n1ccnc1
REMARK SMILES IDX 7 1 6 2 5 3 4 4 15 5 3 6 2 7 1 8 8 9 13 10 12 11 9 12 11 13
REMARK SMILES IDX 10 14 14 15 16 16 17 17 20 18 18 19 19 20
REMARK H PARENT
ROOT
ATOM      1  C   UNL     1      -1.188  -0.136   0.478  1.00  0.00     0.094 C 
ATOM      2  C   UNL     1      -0.656  -1.506   0.074  1.00  0.00     0.095 C 
ATOM      3  S   UNL     1       1.126  -1.515   0.431  1.00  0.00    -0.115 SA
ATOM      4  C   UNL     1       1.450   0.153   0.001  1.00  0.00     0.076 C 
ATOM      5  S   UNL     1      -0.024   1.126  -0.131  1.00  0.00    -0.107 SA
ATOM      6  C   UNL     1       2.678   0.677  -0.267  1.00  0.00     0.145 C 
ATOM      7  C   UNL     1       2.737   2.042  -0.720  1.00  0.00     0.120 C 
ATOM      8  N   UNL     1       2.836   3.139  -1.088  1.00  0.00    -0.191 NA
ENDROOT
BRANCH   1   9
ATOM      9  C   UNL     1      -2.635   0.131   0.102  1.00  0.00    -0.015 A 
ATOM     10  C   UNL     1      -3.142   0.172  -1.210  1.00  0.00     0.045 A 
ATOM     11  C   UNL     1      -4.502   0.420  -1.445  1.00  0.00     0.021 A 
ATOM     12  C   UNL     1      -3.546   0.354   1.159  1.00  0.00     0.006 A 
ATOM     13  C   UNL     1      -5.379   0.632  -0.384  1.00  0.00     0.002 A 
ATOM     14  C   UNL     1      -4.900   0.600   0.919  1.00  0.00     0.000 A 
ATOM     15  Cl  UNL     1      -2.162  -0.065  -2.615  1.00  0.00    -0.084 Cl
ENDBRANCH   1   9
BRANCH   6  16
ATOM     16  N   UNL     1       3.947   0.041  -0.166  1.00  0.00    -0.296 N 
ATOM     17  C   UNL     1       4.329  -1.128   0.473  1.00  0.00     0.113 A 
ATOM     18  C   UNL     1       5.148   0.522  -0.689  1.00  0.00     0.204 A 
ATOM     19  C   UNL     1       5.677  -1.292   0.265  1.00  0.00     0.131 A 
ATOM     20  N   UNL     1       6.177  -0.260  -0.460  1.00  0.00    -0.245 NA
ENDBRANCH   6  16
TORSDOF 2
