REMARK SMILES Cc1c(OCC(F)(F)F)ccnc1CS(=O)c1nc2ccccc2[nH]1
REMARK SMILES IDX 1 1 2 2 13 3 12 4 11 5 10 6 3 7 14 8 15 9 16 10 17 11 18 12
REMARK SMILES IDX 25 13 19 14 24 15 20 16 23 17 21 18 22 19 4 21 5 22 6 23
REMARK SMILES IDX 7 24 8 25 9 26
REMARK H PARENT 25 20
ROOT
ATOM      1  C   UNL     1      -2.515  -1.504   1.958  1.00  0.00     0.050 C 
ATOM      2  C   UNL     1      -1.599  -1.467   0.767  1.00  0.00     0.014 A 
ATOM      3  C   UNL     1      -0.203  -1.392   0.871  1.00  0.00     0.060 A 
ATOM      4  N   UNL     1       0.608  -1.399  -0.224  1.00  0.00    -0.260 NA
ATOM      5  C   UNL     1       0.046  -1.504  -1.446  1.00  0.00     0.115 A 
ATOM      6  C   UNL     1      -1.313  -1.591  -1.651  1.00  0.00     0.067 A 
ATOM      7  C   UNL     1      -2.133  -1.556  -0.529  1.00  0.00     0.126 A 
ENDROOT
BRANCH   3   8
ATOM      8  C   UNL     1       0.516  -1.254   2.194  1.00  0.00     0.170 C 
BRANCH   8   9
ATOM      9  S   UNL     1       0.651   0.478   2.756  1.00  0.00     0.095 S 
ATOM     10  O   UNL     1      -0.583   1.223   2.326  1.00  0.00    -0.251 OA
BRANCH   9  11
ATOM     11  C   UNL     1       1.948   0.972   1.612  1.00  0.00     0.197 A 
ATOM     12  N   UNL     1       3.226   0.705   1.772  1.00  0.00    -0.220 NA
ATOM     13  N   UNL     1       1.713   1.685   0.468  1.00  0.00    -0.331 N 
ATOM     14  C   UNL     1       3.838   1.242   0.664  1.00  0.00     0.090 A 
ATOM     15  C   UNL     1       2.910   1.860  -0.173  1.00  0.00     0.066 A 
ATOM     16  C   UNL     1       5.191   1.240   0.299  1.00  0.00     0.030 A 
ATOM     17  C   UNL     1       3.254   2.484  -1.373  1.00  0.00     0.028 A 
ATOM     18  C   UNL     1       5.564   1.861  -0.901  1.00  0.00     0.002 A 
ATOM     19  C   UNL     1       4.610   2.470  -1.721  1.00  0.00     0.002 A 
ATOM     20  H   UNL     1       0.799   1.991   0.163  1.00  0.00     0.169 HD
ENDBRANCH   9  11
ENDBRANCH   8   9
ENDBRANCH   3   8
BRANCH   7  21
ATOM     21  O   UNL     1      -3.489  -1.676  -0.693  1.00  0.00    -0.484 OA
BRANCH  21  22
ATOM     22  C   UNL     1      -4.059  -0.423  -1.117  1.00  0.00     0.344 C 
BRANCH  22  23
ATOM     23  C   UNL     1      -5.576  -0.474  -1.036  1.00  0.00     0.422 C 
ATOM     24  F   UNL     1      -6.002  -0.712   0.225  1.00  0.00    -0.167 F 
ATOM     25  F   UNL     1      -6.109   0.710  -1.428  1.00  0.00    -0.167 F 
ATOM     26  F   UNL     1      -6.089  -1.430  -1.843  1.00  0.00    -0.167 F 
ENDBRANCH  22  23
ENDBRANCH  21  22
ENDBRANCH   7  21
TORSDOF 6
