REMARK SMILES CCN(C(=O)c1c(O)c2c(Cl)cccc2n(C)c1=O)c1ccccc1
REMARK SMILES IDX 4 1 5 2 3 3 2 4 1 5 20 6 21 7 25 8 22 9 24 10 23 11 6 12
REMARK SMILES IDX 7 13 18 14 9 15 16 16 19 17 15 18 10 19 14 20 12 21 13 22
REMARK SMILES IDX 17 23 11 24 8 25
REMARK H PARENT 8 26
ROOT
ATOM      1  C   UNL     1      -0.900   0.931  -0.209  1.00  0.00     0.267 C 
ATOM      2  O   UNL     1      -1.294   2.012  -0.662  1.00  0.00    -0.268 OA
ENDROOT
BRANCH   1   3
ATOM      3  N   UNL     1      -1.622   0.134   0.695  1.00  0.00    -0.308 N 
BRANCH   3   4
ATOM      4  C   UNL     1      -0.937  -0.791   1.621  1.00  0.00     0.122 C 
ATOM      5  C   UNL     1      -1.364  -2.247   1.470  1.00  0.00     0.028 C 
ENDBRANCH   3   4
BRANCH   3   6
ATOM      6  C   UNL     1      -3.043   0.353   0.871  1.00  0.00     0.044 A 
ATOM      7  C   UNL     1      -3.706   0.032   2.068  1.00  0.00     0.026 A 
ATOM      8  C   UNL     1      -3.827   0.865  -0.176  1.00  0.00     0.026 A 
ATOM      9  C   UNL     1      -5.084   0.233   2.217  1.00  0.00     0.002 A 
ATOM     10  C   UNL     1      -5.205   1.066  -0.031  1.00  0.00     0.002 A 
ATOM     11  C   UNL     1      -5.834   0.752   1.168  1.00  0.00     0.000 A 
ENDBRANCH   3   6
ENDBRANCH   1   3
BRANCH   1  12
ATOM     12  C   UNL     1       0.498   0.546  -0.549  1.00  0.00     0.148 C 
ATOM     13  C   UNL     1       1.471   1.440  -0.299  1.00  0.00     0.144 C 
ATOM     14  C   UNL     1       0.790  -0.743  -1.207  1.00  0.00     0.267 C 
ATOM     15  C   UNL     1       2.899   1.114  -0.540  1.00  0.00     0.060 A 
ATOM     16  N   UNL     1       2.123  -1.054  -1.437  1.00  0.00    -0.310 N 
ATOM     17  O   UNL     1      -0.137  -1.484  -1.529  1.00  0.00    -0.268 OA
ATOM     18  C   UNL     1       3.187  -0.151  -1.115  1.00  0.00     0.056 A 
ATOM     19  C   UNL     1       3.993   1.963  -0.237  1.00  0.00     0.054 A 
ATOM     20  C   UNL     1       4.523  -0.518  -1.372  1.00  0.00     0.027 A 
ATOM     21  C   UNL     1       5.312   1.571  -0.505  1.00  0.00     0.021 A 
ATOM     22  C   UNL     1       5.578   0.336  -1.072  1.00  0.00     0.004 A 
ATOM     23  C   UNL     1       2.419  -2.335  -2.067  1.00  0.00     0.153 C 
ATOM     24  Cl  UNL     1       3.859   3.532   0.492  1.00  0.00    -0.083 Cl
BRANCH  13  25
ATOM     25  O   UNL     1       1.198   2.702   0.197  1.00  0.00    -0.506 OA
ATOM     26  H   UNL     1       0.261   2.930   0.009  1.00  0.00     0.293 HD
ENDBRANCH  13  25
ENDBRANCH   1  12
TORSDOF 5
