REMARK SMILES CN1CCC(C(=O)c2cccc(NC(=O)c3c(F)cc(F)cc3F)n2)CC1
REMARK SMILES IDX 8 1 25 2 12 3 11 4 10 5 9 6 6 7 7 8 5 9 2 10 3 11 27 12 4 13
REMARK SMILES IDX 26 14 1 15 13 16 14 17 15 18 16 20 17 21 23 22 19 23 22 24
REMARK SMILES IDX 20 25 18 26 24 27 21 28
REMARK H PARENT 13 19
ROOT
ATOM      1  C   UNL     1       1.078  -0.441  -2.105  1.00  0.00     0.109 A 
ATOM      2  N   UNL     1      -0.041  -0.396  -1.338  1.00  0.00    -0.228 NA
ATOM      3  C   UNL     1      -1.223  -0.234  -1.969  1.00  0.00     0.133 A 
ATOM      4  C   UNL     1      -1.323  -0.119  -3.349  1.00  0.00     0.047 A 
ATOM      5  C   UNL     1      -0.161  -0.169  -4.117  1.00  0.00     0.006 A 
ATOM      6  C   UNL     1       1.066  -0.333  -3.488  1.00  0.00     0.032 A 
ENDROOT
BRANCH   1   7
ATOM      7  C   UNL     1       2.380  -0.614  -1.390  1.00  0.00     0.184 C 
ATOM      8  O   UNL     1       3.428  -0.642  -2.036  1.00  0.00    -0.292 OA
BRANCH   7   9
ATOM      9  C   UNL     1       2.353  -0.721   0.135  1.00  0.00     0.065 C 
ATOM     10  N   UNL     1       4.300   0.439   2.115  1.00  0.00    -0.306 NA
ATOM     11  C   UNL     1       4.706  -0.453   1.018  1.00  0.00     0.085 C 
ATOM     12  C   UNL     1       2.872   0.773   2.115  1.00  0.00     0.085 C 
ATOM     13  C   UNL     1       3.604  -1.448   0.659  1.00  0.00     0.027 C 
ATOM     14  C   UNL     1       2.217   0.685   0.739  1.00  0.00     0.027 C 
ATOM     15  C   UNL     1       5.145   1.630   2.145  1.00  0.00     0.105 C 
ENDBRANCH   7   9
ENDBRANCH   1   7
BRANCH   3  16
ATOM     16  N   UNL     1      -2.310  -0.201  -1.092  1.00  0.00    -0.306 N 
ATOM     17  C   UNL     1      -3.644  -0.027  -1.388  1.00  0.00     0.262 C 
ATOM     18  O   UNL     1      -4.092   0.145  -2.515  1.00  0.00    -0.269 OA
ATOM     19  H   UNL     1      -2.016  -0.299  -0.127  1.00  0.00     0.171 HD
BRANCH  17  20
ATOM     20  C   UNL     1      -4.586  -0.052  -0.231  1.00  0.00     0.111 A 
ATOM     21  C   UNL     1      -4.152   0.080   1.093  1.00  0.00     0.141 A 
ATOM     22  C   UNL     1      -5.961  -0.199  -0.453  1.00  0.00     0.141 A 
ATOM     23  C   UNL     1      -5.049   0.069   2.160  1.00  0.00     0.079 A 
ATOM     24  C   UNL     1      -6.870  -0.211   0.605  1.00  0.00     0.079 A 
ATOM     25  C   UNL     1      -6.404  -0.075   1.903  1.00  0.00     0.129 A 
ATOM     26  F   UNL     1      -2.849   0.220   1.380  1.00  0.00    -0.206 F 
ATOM     27  F   UNL     1      -6.459  -0.355  -1.688  1.00  0.00    -0.206 F 
ATOM     28  F   UNL     1      -7.271  -0.087   2.922  1.00  0.00    -0.207 F 
ENDBRANCH  17  20
ENDBRANCH   3  16
TORSDOF 4
