REMARK SMILES O=C(CCn1cnc2c(=O)[nH]cnc21)Nc1ccc(C(=O)O)cc1
REMARK SMILES IDX 15 1 2 2 1 3 16 5 19 6 18 7 23 8 17 9 24 10 20 11 21 12
REMARK SMILES IDX 22 13 3 15 4 16 5 17 6 18 14 19 7 20 8 21 13 22 9 23 12 24
REMARK SMILES IDX 11 25 10 26
REMARK H PARENT 15 4 22 14 11 27
ROOT
ATOM      1  N   UNL     1       1.028  -0.148   1.212  1.00  0.00    -0.326 N 
ATOM      2  C   UNL     1       0.142  -1.149   0.849  1.00  0.00     0.226 C 
ATOM      3  O   UNL     1       0.346  -2.046   0.039  1.00  0.00    -0.275 OA
ATOM      4  H   UNL     1       0.712   0.507   1.917  1.00  0.00     0.169 HD
ENDROOT
BRANCH   1   5
ATOM      5  C   UNL     1       2.324   0.078   0.704  1.00  0.00     0.041 A 
ATOM      6  C   UNL     1       4.926   0.668  -0.202  1.00  0.00     0.060 A 
ATOM      7  C   UNL     1       4.218  -0.411  -0.738  1.00  0.00     0.018 A 
ATOM      8  C   UNL     1       4.330   1.454   0.789  1.00  0.00     0.018 A 
ATOM      9  C   UNL     1       2.924  -0.703  -0.286  1.00  0.00     0.027 A 
ATOM     10  C   UNL     1       3.038   1.159   1.237  1.00  0.00     0.027 A 
BRANCH   6  11
ATOM     11  C   UNL     1       6.297   1.016  -0.648  1.00  0.00     0.335 C 
ATOM     12  O   UNL     1       6.969   1.938  -0.225  1.00  0.00    -0.246 OA
BRANCH  11  13
ATOM     13  O   UNL     1       6.761   0.191  -1.603  1.00  0.00    -0.478 OA
ATOM     14  H   UNL     1       7.657   0.536  -1.800  1.00  0.00     0.297 HD
ENDBRANCH  11  13
ENDBRANCH   6  11
ENDBRANCH   1   5
BRANCH   2  15
ATOM     15  C   UNL     1      -1.156  -1.064   1.630  1.00  0.00     0.122 C 
BRANCH  15  16
ATOM     16  C   UNL     1      -2.259  -1.908   1.002  1.00  0.00     0.135 C 
BRANCH  16  17
ATOM     17  N   UNL     1      -2.824  -1.296  -0.184  1.00  0.00    -0.315 N 
ATOM     18  C   UNL     1      -2.544  -1.631  -1.485  1.00  0.00     0.202 A 
ATOM     19  C   UNL     1      -3.755  -0.298  -0.213  1.00  0.00     0.167 A 
ATOM     20  N   UNL     1      -3.248  -0.916  -2.341  1.00  0.00    -0.229 NA
ATOM     21  C   UNL     1      -4.004  -0.087  -1.553  1.00  0.00     0.173 A 
ATOM     22  N   UNL     1      -4.301   0.332   0.856  1.00  0.00    -0.219 NA
ATOM     23  C   UNL     1      -4.975   0.926  -1.912  1.00  0.00     0.278 C 
ATOM     24  C   UNL     1      -5.171   1.232   0.505  1.00  0.00     0.202 C 
ATOM     25  N   UNL     1      -5.521   1.545  -0.796  1.00  0.00    -0.311 N 
ATOM     26  O   UNL     1      -5.309   1.237  -3.050  1.00  0.00    -0.267 OA
ATOM     27  H   UNL     1      -6.207   2.259  -0.991  1.00  0.00     0.171 HD
ENDBRANCH  16  17
ENDBRANCH  15  16
ENDBRANCH   2  15
TORSDOF 6
