REMARK SMILES CCOC(=O)CSCCC1NC(C(=O)O)CS1
REMARK SMILES IDX 7 1 6 2 4 3 5 4 3 5 2 6 1 7 8 8 9 9 10 10 11 11 17 12 12 13
REMARK SMILES IDX 16 14 13 16 14 17 15 18
REMARK H PARENT 11 15 15 19
ROOT
ATOM      1  S   UNL     1       0.974  -2.363   0.060  1.00  0.00    -0.150 SA
ENDROOT
BRANCH   1   2
ATOM      2  C   UNL     1       2.038  -1.333  -1.001  1.00  0.00     0.192 C 
BRANCH   2   3
ATOM      3  C   UNL     1       2.841  -0.279  -0.267  1.00  0.00     0.315 C 
ATOM      4  O   UNL     1       2.610   0.183   0.841  1.00  0.00    -0.251 OA
BRANCH   3   5
ATOM      5  O   UNL     1       3.867   0.132  -1.074  1.00  0.00    -0.465 OA
BRANCH   5   6
ATOM      6  C   UNL     1       4.720   1.153  -0.535  1.00  0.00     0.229 C 
ATOM      7  C   UNL     1       5.815   0.530   0.311  1.00  0.00     0.049 C 
ENDBRANCH   5   6
ENDBRANCH   3   5
ENDBRANCH   2   3
ENDBRANCH   1   2
BRANCH   1   8
ATOM      8  C   UNL     1      -0.149  -1.129   0.820  1.00  0.00     0.072 C 
BRANCH   8   9
ATOM      9  C   UNL     1      -0.836  -0.193  -0.174  1.00  0.00     0.041 C 
BRANCH   9  10
ATOM     10  C   UNL     1      -1.744   0.824   0.536  1.00  0.00     0.113 C 
ATOM     11  N   UNL     1      -2.798   0.239   1.371  1.00  0.00    -0.292 NA
ATOM     12  S   UNL     1      -2.532   1.918  -0.680  1.00  0.00    -0.141 SA
ATOM     13  C   UNL     1      -4.059   0.155   0.584  1.00  0.00     0.175 C 
ATOM     14  C   UNL     1      -4.213   1.435  -0.227  1.00  0.00     0.102 C 
ATOM     15  H   UNL     1      -2.966   0.897   2.134  1.00  0.00     0.124 HD
BRANCH  13  16
ATOM     16  C   UNL     1      -4.140  -1.118  -0.266  1.00  0.00     0.321 C 
ATOM     17  O   UNL     1      -3.428  -2.107  -0.208  1.00  0.00    -0.251 OA
BRANCH  16  18
ATOM     18  O   UNL     1      -5.202  -1.122  -1.102  1.00  0.00    -0.480 OA
ATOM     19  H   UNL     1      -5.141  -2.001  -1.535  1.00  0.00     0.296 HD
ENDBRANCH  16  18
ENDBRANCH  13  16
ENDBRANCH   9  10
ENDBRANCH   8   9
ENDBRANCH   1   8
TORSDOF 9
