REMARK SMILES N#Cc1ccc(C(c2ccc(C#N)cc2)n2cncn2)cc1
REMARK SMILES IDX 7 1 6 2 1 3 2 4 3 5 4 6 22 7 5 8 21 9 16 10 17 11 20 12
REMARK SMILES IDX 18 13 19 14 8 15 9 16 15 17 10 18 14 19 11 20 12 21 13 22
REMARK H PARENT
ROOT
ATOM      1  C   UNL     1       0.159   0.754  -0.635  1.00  0.00     0.169 C 
ENDROOT
BRANCH   1   2
ATOM      2  C   UNL     1      -1.091  -0.120  -0.732  1.00  0.00    -0.019 A 
ATOM      3  N   UNL     1      -5.519  -3.206  -1.164  1.00  0.00    -0.192 NA
ATOM      4  C   UNL     1      -4.572  -2.542  -1.066  1.00  0.00     0.099 C 
ATOM      5  C   UNL     1      -3.400  -1.726  -0.952  1.00  0.00     0.052 A 
ATOM      6  C   UNL     1      -2.829  -1.154  -2.093  1.00  0.00     0.020 A 
ATOM      7  C   UNL     1      -2.822  -1.494   0.298  1.00  0.00     0.020 A 
ATOM      8  C   UNL     1      -1.686  -0.356  -1.984  1.00  0.00     0.007 A 
ATOM      9  C   UNL     1      -1.679  -0.697   0.406  1.00  0.00     0.007 A 
ENDBRANCH   1   2
BRANCH   1  10
ATOM     10  N   UNL     1      -0.139   2.113  -0.154  1.00  0.00    -0.241 N 
ATOM     11  C   UNL     1       0.314   3.280  -0.700  1.00  0.00     0.220 A 
ATOM     12  N   UNL     1      -0.914   2.369   0.927  1.00  0.00    -0.159 NA
ATOM     13  N   UNL     1      -0.156   4.300  -0.021  1.00  0.00    -0.223 NA
ATOM     14  C   UNL     1      -0.901   3.703   0.955  1.00  0.00     0.246 A 
ENDBRANCH   1  10
BRANCH   1  15
ATOM     15  C   UNL     1       1.334   0.092   0.091  1.00  0.00    -0.019 A 
ATOM     16  C   UNL     1       1.632   0.329   1.444  1.00  0.00     0.007 A 
ATOM     17  C   UNL     1       2.133  -0.829  -0.613  1.00  0.00     0.007 A 
ATOM     18  C   UNL     1       2.707  -0.316   2.066  1.00  0.00     0.020 A 
ATOM     19  C   UNL     1       3.206  -1.475   0.009  1.00  0.00     0.020 A 
ATOM     20  C   UNL     1       3.497  -1.218   1.350  1.00  0.00     0.052 A 
ATOM     21  C   UNL     1       4.597  -1.879   1.989  1.00  0.00     0.099 C 
ATOM     22  N   UNL     1       5.489  -2.416   2.502  1.00  0.00    -0.192 NA
ENDBRANCH   1  15
TORSDOF 3
