REMARK SMILES c1ccc([C@H]2CN3CCSC3=N2)cc1
REMARK SMILES IDX 9 1 8 2 7 3 6 4 5 5 12 6 11 7 10 8 4 9 3 10 13 11 2 12 14 13
REMARK SMILES IDX 1 14
REMARK H PARENT
ROOT
ATOM      1  C   UNL     1      -3.894  -0.924   0.030  1.00  0.00     0.099 C 
ATOM      2  C   UNL     1      -3.167   0.267  -0.614  1.00  0.00     0.130 C 
ATOM      3  N   UNL     1      -1.791   0.149  -0.181  1.00  0.00    -0.348 N 
ATOM      4  C   UNL     1      -0.815   1.204  -0.337  1.00  0.00     0.150 C 
ATOM      5  C   UNL     1       0.151   0.890   0.850  1.00  0.00     0.158 C 
ATOM      6  N   UNL     1      -0.624   0.008   1.801  1.00  0.00    -0.252 NA
ATOM      7  C   UNL     1      -1.664  -0.308   1.096  1.00  0.00     0.160 C 
ATOM      8  S   UNL     1      -3.048  -1.197   1.635  1.00  0.00    -0.087 SA
ENDROOT
BRANCH   5   9
ATOM      9  C   UNL     1       1.461   0.283   0.383  1.00  0.00    -0.022 A 
ATOM     10  C   UNL     1       2.509   1.126  -0.023  1.00  0.00     0.006 A 
ATOM     11  C   UNL     1       1.652  -1.104   0.308  1.00  0.00     0.006 A 
ATOM     12  C   UNL     1       3.715   0.594  -0.486  1.00  0.00     0.000 A 
ATOM     13  C   UNL     1       2.858  -1.635  -0.155  1.00  0.00     0.000 A 
ATOM     14  C   UNL     1       3.888  -0.786  -0.552  1.00  0.00     0.000 A 
ENDBRANCH   5   9
TORSDOF 1
