REMARK SMILES C[C@@H](CCc1ccc(O)cc1)NCCc1ccc(O)c(O)c1
REMARK SMILES IDX 1 1 2 2 3 3 4 4 5 5 6 6 11 7 7 8 10 9 8 10 9 11 12 13 13 15
REMARK SMILES IDX 14 16 15 17 16 18 22 19 17 20 20 21 18 22 21 23 19 25
REMARK H PARENT 9 12 12 14 21 24 19 26
ROOT
ATOM      1  C   UNL     1       0.492  -0.758   2.116  1.00  0.00     0.024 C 
ATOM      2  C   UNL     1       0.576  -0.115   0.728  1.00  0.00     0.050 C 
ENDROOT
BRANCH   2   3
ATOM      3  C   UNL     1       1.975  -0.290   0.102  1.00  0.00     0.023 C 
BRANCH   3   4
ATOM      4  C   UNL     1       3.078   0.445   0.872  1.00  0.00     0.037 C 
BRANCH   4   5
ATOM      5  C   UNL     1       4.408   0.352   0.164  1.00  0.00    -0.048 A 
ATOM      6  C   UNL     1       4.776   1.314  -0.788  1.00  0.00     0.007 A 
ATOM      7  C   UNL     1       5.280  -0.713   0.429  1.00  0.00     0.007 A 
ATOM      8  C   UNL     1       5.999   1.220  -1.455  1.00  0.00     0.046 A 
ATOM      9  C   UNL     1       6.503  -0.806  -0.238  1.00  0.00     0.046 A 
ATOM     10  C   UNL     1       6.853   0.159  -1.173  1.00  0.00     0.115 A 
BRANCH  10  11
ATOM     11  O   UNL     1       8.056   0.029  -1.801  1.00  0.00    -0.508 OA
ATOM     12  H   UNL     1       8.160   0.767  -2.423  1.00  0.00     0.293 HD
ENDBRANCH  10  11
ENDBRANCH   4   5
ENDBRANCH   3   4
ENDBRANCH   2   3
BRANCH   2  13
ATOM     13  N   UNL     1      -0.388  -0.722  -0.203  1.00  0.00    -0.314 NA
ATOM     14  H   UNL     1      -0.321  -1.739  -0.159  1.00  0.00     0.122 HD
BRANCH  13  15
ATOM     15  C   UNL     1      -1.770  -0.297   0.030  1.00  0.00     0.086 C 
BRANCH  15  16
ATOM     16  C   UNL     1      -2.691  -0.880  -1.051  1.00  0.00     0.051 C 
BRANCH  16  17
ATOM     17  C   UNL     1      -4.124  -0.444  -0.859  1.00  0.00    -0.043 A 
ATOM     18  C   UNL     1      -4.989  -1.194  -0.043  1.00  0.00     0.008 A 
ATOM     19  C   UNL     1      -4.597   0.728  -1.470  1.00  0.00     0.054 A 
ATOM     20  C   UNL     1      -6.310  -0.787   0.156  1.00  0.00     0.050 A 
ATOM     21  C   UNL     1      -5.914   1.125  -1.266  1.00  0.00     0.157 A 
ATOM     22  C   UNL     1      -6.760   0.371  -0.458  1.00  0.00     0.157 A 
BRANCH  21  23
ATOM     23  O   UNL     1      -6.425   2.257  -1.840  1.00  0.00    -0.504 OA
ATOM     24  H   UNL     1      -5.725   2.661  -2.381  1.00  0.00     0.293 HD
ENDBRANCH  21  23
BRANCH  22  25
ATOM     25  O   UNL     1      -8.051   0.771  -0.263  1.00  0.00    -0.504 OA
ATOM     26  H   UNL     1      -8.132   1.593  -0.787  1.00  0.00     0.293 HD
ENDBRANCH  22  25
ENDBRANCH  16  17
ENDBRANCH  15  16
ENDBRANCH  13  15
ENDBRANCH   2  13
TORSDOF 10
