REMARK SMILES CC[C@H](OC(C)=O)C(C[C@H](C)N(C)C)(c1ccccc1)c1ccccc1
REMARK SMILES IDX 8 1 3 2 2 3 1 4 4 5 5 6 7 7 6 8 9 9 10 10 11 11 12 12 13 13
REMARK SMILES IDX 14 14 15 15 16 16 20 17 17 18 19 19 18 20 21 21 22 22 26 23
REMARK SMILES IDX 23 24 25 25 24 26
REMARK H PARENT
ROOT
ATOM      1  C   UNL     1      -0.441   0.327  -0.122  1.00  0.00     0.059 C 
ENDROOT
BRANCH   1   2
ATOM      2  C   UNL     1      -1.796  -0.503  -0.432  1.00  0.00     0.191 C 
BRANCH   2   3
ATOM      3  C   UNL     1      -3.114   0.160   0.032  1.00  0.00     0.043 C 
ATOM      4  C   UNL     1      -4.345  -0.639  -0.389  1.00  0.00     0.008 C 
ENDBRANCH   2   3
BRANCH   2   5
ATOM      5  O   UNL     1      -1.760  -1.839   0.140  1.00  0.00    -0.461 OA
BRANCH   5   6
ATOM      6  C   UNL     1      -1.687  -2.895  -0.716  1.00  0.00     0.302 C 
ATOM      7  O   UNL     1      -1.647  -2.831  -1.935  1.00  0.00    -0.253 OA
ATOM      8  C   UNL     1      -1.653  -4.174   0.064  1.00  0.00     0.139 C 
ENDBRANCH   5   6
ENDBRANCH   2   5
ENDBRANCH   1   2
BRANCH   1   9
ATOM      9  C   UNL     1       0.776  -0.670  -0.375  1.00  0.00     0.039 C 
BRANCH   9  10
ATOM     10  C   UNL     1       2.258  -0.255  -0.083  1.00  0.00     0.054 C 
ATOM     11  C   UNL     1       2.701   0.950  -0.927  1.00  0.00     0.024 C 
BRANCH  10  12
ATOM     12  N   UNL     1       3.185  -1.418  -0.318  1.00  0.00    -0.307 NA
ATOM     13  C   UNL     1       2.875  -2.567   0.545  1.00  0.00     0.105 C 
ATOM     14  C   UNL     1       4.597  -1.065  -0.111  1.00  0.00     0.105 C 
ENDBRANCH  10  12
ENDBRANCH   9  10
ENDBRANCH   1   9
BRANCH   1  15
ATOM     15  C   UNL     1      -0.523   1.503  -1.151  1.00  0.00    -0.034 A 
ATOM     16  C   UNL     1      -1.116   2.739  -0.822  1.00  0.00     0.005 A 
ATOM     17  C   UNL     1      -0.121   1.331  -2.491  1.00  0.00     0.005 A 
ATOM     18  C   UNL     1      -1.233   3.771  -1.759  1.00  0.00     0.000 A 
ATOM     19  C   UNL     1      -0.238   2.362  -3.429  1.00  0.00     0.000 A 
ATOM     20  C   UNL     1      -0.786   3.584  -3.061  1.00  0.00     0.000 A 
ENDBRANCH   1  15
BRANCH   1  21
ATOM     21  C   UNL     1      -0.294   0.765   1.373  1.00  0.00    -0.034 A 
ATOM     22  C   UNL     1       0.443   1.913   1.738  1.00  0.00     0.005 A 
ATOM     23  C   UNL     1      -0.787  -0.020   2.432  1.00  0.00     0.005 A 
ATOM     24  C   UNL     1       0.623   2.284   3.074  1.00  0.00     0.000 A 
ATOM     25  C   UNL     1      -0.610   0.348   3.770  1.00  0.00     0.000 A 
ATOM     26  C   UNL     1       0.090   1.504   4.092  1.00  0.00     0.000 A 
ENDBRANCH   1  21
TORSDOF 9
