REMARK SMILES C[C@@H](Cc1ccccc1)NC(=O)[C@@H](N)CCCCN
REMARK SMILES IDX 15 1 13 2 11 3 10 4 12 5 2 7 1 8 3 9 4 10 5 11 9 12 6 13
REMARK SMILES IDX 8 14 7 15 14 16 16 19 17 20 18 21 19 22
REMARK H PARENT 10 6 14 17 14 18 19 23 19 24
ROOT
ATOM      1  C   UNL     1      -2.919  -1.283   0.392  1.00  0.00     0.029 C 
ENDROOT
BRANCH   1   2
ATOM      2  C   UNL     1      -1.840  -0.251   0.031  1.00  0.00     0.141 C 
BRANCH   2   3
ATOM      3  C   UNL     1      -0.431  -0.770   0.415  1.00  0.00     0.237 C 
ATOM      4  N   UNL     1       0.575  -0.068  -0.221  1.00  0.00    -0.352 N 
ATOM      5  O   UNL     1      -0.231  -1.668   1.225  1.00  0.00    -0.273 OA
ATOM      6  H   UNL     1       0.246   0.455  -1.031  1.00  0.00     0.163 HD
BRANCH   4   7
ATOM      7  C   UNL     1       1.976  -0.468  -0.148  1.00  0.00     0.083 C 
ATOM      8  C   UNL     1       2.242  -1.600  -1.144  1.00  0.00     0.031 C 
BRANCH   7   9
ATOM      9  C   UNL     1       2.878   0.755  -0.404  1.00  0.00     0.060 C 
BRANCH   9  10
ATOM     10  C   UNL     1       4.347   0.503  -0.161  1.00  0.00    -0.046 A 
ATOM     11  C   UNL     1       4.830   0.320   1.143  1.00  0.00     0.004 A 
ATOM     12  C   UNL     1       5.248   0.447  -1.233  1.00  0.00     0.004 A 
ATOM     13  C   UNL     1       6.186   0.081   1.368  1.00  0.00     0.000 A 
ATOM     14  C   UNL     1       6.604   0.208  -1.005  1.00  0.00     0.000 A 
ATOM     15  C   UNL     1       7.073   0.024   0.294  1.00  0.00     0.000 A 
ENDBRANCH   9  10
ENDBRANCH   7   9
ENDBRANCH   4   7
ENDBRANCH   2   3
BRANCH   2  16
ATOM     16  N   UNL     1      -1.846   0.096  -1.413  1.00  0.00    -0.320 NA
ATOM     17  H   UNL     1      -1.812  -0.774  -1.948  1.00  0.00     0.119 HD
ATOM     18  H   UNL     1      -2.743   0.522  -1.645  1.00  0.00     0.119 HD
ENDBRANCH   2  16
ENDBRANCH   1   2
BRANCH   1  19
ATOM     19  C   UNL     1      -4.367  -0.883   0.076  1.00  0.00     0.003 C 
BRANCH  19  20
ATOM     20  C   UNL     1      -4.828   0.371   0.826  1.00  0.00     0.015 C 
BRANCH  20  21
ATOM     21  C   UNL     1      -6.282   0.754   0.536  1.00  0.00     0.077 C 
BRANCH  21  22
ATOM     22  N   UNL     1      -7.243  -0.223   1.032  1.00  0.00    -0.330 NA
ATOM     23  H   UNL     1      -7.077  -0.398   2.023  1.00  0.00     0.118 HD
ATOM     24  H   UNL     1      -7.115  -1.117   0.562  1.00  0.00     0.118 HD
ENDBRANCH  21  22
ENDBRANCH  20  21
ENDBRANCH  19  20
ENDBRANCH   1  19
TORSDOF 10
