REMARK SMILES COc1ccc(Oc2cc(N(C)CCOc3ccc(CC4SC(=O)NC4=O)cc3)ncn2)cc1
REMARK SMILES IDX 13 1 11 2 12 3 10 4 8 5 9 6 32 7 31 8 30 9 7 10 6 11 3 12
REMARK SMILES IDX 4 13 34 14 5 15 33 16 2 17 1 18 14 19 15 20 16 21 17 22
REMARK SMILES IDX 29 23 18 24 28 25 19 26 20 27 21 28 22 29 26 30 23 31 25 32
REMARK SMILES IDX 27 33 24 34
REMARK H PARENT 25 35
ROOT
ATOM      1  C   UNL     1      -0.237  -0.131  -0.210  1.00  0.00     0.159 C 
ENDROOT
BRANCH   1   2
ATOM      2  N   UNL     1       0.708  -1.087  -0.829  1.00  0.00    -0.356 N 
ATOM      3  C   UNL     1       0.213  -1.732  -2.048  1.00  0.00     0.145 C 
BRANCH   2   4
ATOM      4  C   UNL     1       2.028  -0.613  -0.946  1.00  0.00     0.135 A 
ATOM      5  C   UNL     1       4.030   0.151   0.025  1.00  0.00     0.224 A 
ATOM      6  C   UNL     1       2.729  -0.265   0.195  1.00  0.00     0.115 A 
ATOM      7  N   UNL     1       4.632   0.262  -1.170  1.00  0.00    -0.201 NA
ATOM      8  C   UNL     1       3.883  -0.114  -2.207  1.00  0.00     0.228 A 
ATOM      9  N   UNL     1       2.616  -0.552  -2.154  1.00  0.00    -0.219 NA
BRANCH   5  10
ATOM     10  O   UNL     1       4.712   0.519   1.180  1.00  0.00    -0.439 OA
BRANCH  10  11
ATOM     11  C   UNL     1       6.080   0.380   1.170  1.00  0.00     0.129 A 
ATOM     12  C   UNL     1       8.868   0.176   1.318  1.00  0.00     0.119 A 
ATOM     13  C   UNL     1       8.236   1.381   1.630  1.00  0.00     0.050 A 
ATOM     14  C   UNL     1       8.095  -0.928   0.946  1.00  0.00     0.050 A 
ATOM     15  C   UNL     1       6.841   1.480   1.564  1.00  0.00     0.051 A 
ATOM     16  C   UNL     1       6.703  -0.833   0.878  1.00  0.00     0.051 A 
BRANCH  12  17
ATOM     17  O   UNL     1      10.216  -0.056   1.345  1.00  0.00    -0.497 OA
ATOM     18  C   UNL     1      11.049   1.038   1.706  1.00  0.00     0.278 C 
ENDBRANCH  12  17
ENDBRANCH  10  11
ENDBRANCH   5  10
ENDBRANCH   2   4
ENDBRANCH   1   2
BRANCH   1  19
ATOM     19  C   UNL     1      -1.120  -0.831   0.836  1.00  0.00     0.251 C 
BRANCH  19  20
ATOM     20  O   UNL     1      -2.134  -1.643   0.240  1.00  0.00    -0.492 OA
BRANCH  20  21
ATOM     21  C   UNL     1      -3.337  -1.079  -0.076  1.00  0.00     0.119 A 
ATOM     22  C   UNL     1      -3.665   0.274  -0.005  1.00  0.00     0.047 A 
ATOM     23  C   UNL     1      -4.300  -1.987  -0.522  1.00  0.00     0.047 A 
ATOM     24  C   UNL     1      -4.947   0.709  -0.362  1.00  0.00     0.007 A 
ATOM     25  C   UNL     1      -5.580  -1.558  -0.880  1.00  0.00     0.007 A 
ATOM     26  C   UNL     1      -5.917  -0.203  -0.801  1.00  0.00    -0.046 A 
BRANCH  26  27
ATOM     27  C   UNL     1      -7.304   0.271  -1.164  1.00  0.00     0.060 C 
BRANCH  27  28
ATOM     28  C   UNL     1      -8.201   0.506   0.053  1.00  0.00     0.150 C 
ATOM     29  S   UNL     1      -8.785  -1.042   0.835  1.00  0.00    -0.051 SA
ATOM     30  C   UNL     1      -9.468   1.231  -0.351  1.00  0.00     0.241 C 
ATOM     31  C   UNL     1     -10.464  -0.599   0.696  1.00  0.00     0.286 C 
ATOM     32  N   UNL     1     -10.586   0.625   0.135  1.00  0.00    -0.286 N 
ATOM     33  O   UNL     1      -9.506   2.250  -1.030  1.00  0.00    -0.273 OA
ATOM     34  O   UNL     1     -11.389  -1.318   1.033  1.00  0.00    -0.261 OA
ATOM     35  H   UNL     1     -11.501   0.982  -0.088  1.00  0.00     0.173 HD
ENDBRANCH  27  28
ENDBRANCH  26  27
ENDBRANCH  20  21
ENDBRANCH  19  20
ENDBRANCH   1  19
TORSDOF 10
