REMARK SMILES O=C(O)c1ccccc1Nc1cc(Cl)ccc1C(=O)O
REMARK SMILES IDX 10 1 9 3 4 4 5 5 8 6 6 7 7 8 2 9 1 10 3 11 11 13 17 14 12 15
REMARK SMILES IDX 16 16 13 17 15 18 14 19 18 20 19 21 20 22
REMARK H PARENT 10 2 3 12 20 23
ROOT
ATOM      1  N   UNL     1      -0.054   0.163   0.309  1.00  0.00    -0.354 N 
ATOM      2  H   UNL     1      -0.181   0.657   1.206  1.00  0.00     0.167 HD
ENDROOT
BRANCH   1   3
ATOM      3  C   UNL     1      -1.265  -0.284  -0.264  1.00  0.00     0.053 A 
ATOM      4  C   UNL     1      -2.491   0.377  -0.016  1.00  0.00     0.083 A 
ATOM      5  C   UNL     1      -3.673  -0.067  -0.639  1.00  0.00     0.018 A 
ATOM      6  C   UNL     1      -1.278  -1.380  -1.146  1.00  0.00     0.027 A 
ATOM      7  C   UNL     1      -3.654  -1.156  -1.508  1.00  0.00     0.001 A 
ATOM      8  C   UNL     1      -2.456  -1.814  -1.759  1.00  0.00     0.002 A 
BRANCH   4   9
ATOM      9  C   UNL     1      -2.543   1.545   0.906  1.00  0.00     0.337 C 
ATOM     10  O   UNL     1      -1.627   1.975   1.584  1.00  0.00    -0.246 OA
BRANCH   9  11
ATOM     11  O   UNL     1      -3.752   2.138   0.944  1.00  0.00    -0.478 OA
ATOM     12  H   UNL     1      -3.626   2.873   1.581  1.00  0.00     0.297 HD
ENDBRANCH   9  11
ENDBRANCH   4   9
ENDBRANCH   1   3
BRANCH   1  13
ATOM     13  C   UNL     1       1.288   0.117  -0.128  1.00  0.00     0.055 A 
ATOM     14  C   UNL     1       2.363   0.113   0.793  1.00  0.00     0.083 A 
ATOM     15  C   UNL     1       1.594   0.020  -1.498  1.00  0.00     0.047 A 
ATOM     16  C   UNL     1       3.691   0.017   0.332  1.00  0.00     0.019 A 
ATOM     17  C   UNL     1       2.913  -0.074  -1.941  1.00  0.00     0.043 A 
ATOM     18  C   UNL     1       3.964  -0.078  -1.032  1.00  0.00     0.021 A 
ATOM     19  Cl  UNL     1       3.244  -0.183  -3.626  1.00  0.00    -0.084 Cl
BRANCH  14  20
ATOM     20  C   UNL     1       2.102   0.211   2.257  1.00  0.00     0.337 C 
ATOM     21  O   UNL     1       1.030   0.428   2.790  1.00  0.00    -0.246 OA
BRANCH  20  22
ATOM     22  O   UNL     1       3.209   0.031   3.003  1.00  0.00    -0.478 OA
ATOM     23  H   UNL     1       2.882   0.121   3.923  1.00  0.00     0.297 HD
ENDBRANCH  20  22
ENDBRANCH  14  20
ENDBRANCH   1  13
TORSDOF 6
