REMARK SMILES O=C(NC1CCN(CCCCC2(C(=O)NCC(F)(F)F)c3ccccc3-c3ccccc32)CC1)c1ccccc1-c1ccc(C(F)(F)F)cc1
REMARK SMILES IDX 9 1 10 2 11 3 12 4 21 5 32 6 22 7 26 8 27 9 31 10 23 11
REMARK SMILES IDX 25 12 28 13 30 14 24 15 29 16 13 17 15 18 14 19 16 21 17 22
REMARK SMILES IDX 18 23 19 24 20 25 8 26 7 27 6 28 33 29 5 30 34 31 4 32 3 33
REMARK SMILES IDX 2 34 1 35 35 37 40 38 36 39 39 40 37 41 38 42 41 43 42 44
REMARK SMILES IDX 50 45 43 46 49 47 44 48 45 49 46 50 47 51 48 52
REMARK H PARENT 15 20 3 36
ROOT
ATOM      1  C   UNL     1      -2.347   1.749   1.419  1.00  0.00     0.016 C 
ENDROOT
BRANCH   1   2
ATOM      2  C   UNL     1      -2.790   0.410   2.015  1.00  0.00     0.003 C 
BRANCH   2   3
ATOM      3  C   UNL     1      -3.569  -0.546   1.098  1.00  0.00     0.027 C 
BRANCH   3   4
ATOM      4  C   UNL     1      -5.006  -0.165   0.635  1.00  0.00     0.100 C 
ATOM      5  C   UNL     1      -5.653  -1.442   0.016  1.00  0.00    -0.020 A 
ATOM      6  C   UNL     1      -5.978   0.092   1.809  1.00  0.00    -0.020 A 
ATOM      7  C   UNL     1      -5.215  -2.238  -1.039  1.00  0.00     0.006 A 
ATOM      8  C   UNL     1      -6.812  -1.800   0.738  1.00  0.00    -0.013 A 
ATOM      9  C   UNL     1      -7.006  -0.874   1.828  1.00  0.00    -0.013 A 
ATOM     10  C   UNL     1      -5.980   1.133   2.731  1.00  0.00     0.006 A 
ATOM     11  C   UNL     1      -5.971  -3.358  -1.398  1.00  0.00     0.000 A 
ATOM     12  C   UNL     1      -7.562  -2.912   0.379  1.00  0.00     0.009 A 
ATOM     13  C   UNL     1      -8.005  -0.834   2.791  1.00  0.00     0.009 A 
ATOM     14  C   UNL     1      -6.986   1.176   3.699  1.00  0.00     0.000 A 
ATOM     15  C   UNL     1      -7.139  -3.689  -0.700  1.00  0.00     0.001 A 
ATOM     16  C   UNL     1      -7.987   0.196   3.734  1.00  0.00     0.001 A 
BRANCH   4  17
ATOM     17  C   UNL     1      -5.050   1.016  -0.385  1.00  0.00     0.235 C 
ATOM     18  N   UNL     1      -4.272   0.885  -1.519  1.00  0.00    -0.346 N 
ATOM     19  O   UNL     1      -5.696   2.049  -0.210  1.00  0.00    -0.274 OA
ATOM     20  H   UNL     1      -3.876  -0.016  -1.743  1.00  0.00     0.163 HD
BRANCH  18  21
ATOM     21  C   UNL     1      -4.324   1.888  -2.585  1.00  0.00     0.231 C 
BRANCH  21  22
ATOM     22  C   UNL     1      -5.454   1.705  -3.600  1.00  0.00     0.405 C 
ATOM     23  F   UNL     1      -6.679   1.795  -3.052  1.00  0.00    -0.169 F 
ATOM     24  F   UNL     1      -5.366   2.643  -4.573  1.00  0.00    -0.169 F 
ATOM     25  F   UNL     1      -5.355   0.494  -4.203  1.00  0.00    -0.169 F 
ENDBRANCH  21  22
ENDBRANCH  18  21
ENDBRANCH   4  17
ENDBRANCH   3   4
ENDBRANCH   2   3
ENDBRANCH   1   2
BRANCH   1  26
ATOM     26  C   UNL     1      -1.366   1.645   0.240  1.00  0.00     0.084 C 
BRANCH  26  27
ATOM     27  N   UNL     1      -0.169   0.837   0.527  1.00  0.00    -0.303 NA
ATOM     28  C   UNL     1       0.494   0.448  -0.729  1.00  0.00     0.086 C 
ATOM     29  C   UNL     1       0.769   1.553   1.408  1.00  0.00     0.086 C 
ATOM     30  C   UNL     1       1.686  -0.466  -0.460  1.00  0.00     0.040 C 
ATOM     31  C   UNL     1       1.987   0.691   1.739  1.00  0.00     0.040 C 
ATOM     32  C   UNL     1       2.691   0.220   0.467  1.00  0.00     0.084 C 
BRANCH  32  33
ATOM     33  N   UNL     1       3.803  -0.664   0.788  1.00  0.00    -0.349 N 
ATOM     34  C   UNL     1       4.798  -0.939  -0.129  1.00  0.00     0.252 C 
ATOM     35  O   UNL     1       4.849  -0.457  -1.253  1.00  0.00    -0.269 OA
ATOM     36  H   UNL     1       3.822  -1.118   1.691  1.00  0.00     0.164 HD
BRANCH  34  37
ATOM     37  C   UNL     1       5.829  -1.896   0.343  1.00  0.00     0.047 A 
ATOM     38  C   UNL     1       7.200  -1.574   0.293  1.00  0.00    -0.006 A 
ATOM     39  C   UNL     1       5.399  -3.148   0.815  1.00  0.00     0.014 A 
ATOM     40  C   UNL     1       8.118  -2.543   0.739  1.00  0.00     0.009 A 
ATOM     41  C   UNL     1       6.330  -4.088   1.253  1.00  0.00     0.001 A 
ATOM     42  C   UNL     1       7.688  -3.784   1.217  1.00  0.00     0.001 A 
BRANCH  38  43
ATOM     43  C   UNL     1       7.702  -0.275  -0.176  1.00  0.00    -0.018 A 
ATOM     44  C   UNL     1       7.581   0.874   0.619  1.00  0.00     0.009 A 
ATOM     45  C   UNL     1       8.311  -0.158  -1.433  1.00  0.00     0.009 A 
ATOM     46  C   UNL     1       8.051   2.111   0.167  1.00  0.00     0.014 A 
ATOM     47  C   UNL     1       8.781   1.077  -1.888  1.00  0.00     0.014 A 
ATOM     48  C   UNL     1       8.660   2.225  -1.091  1.00  0.00     0.056 A 
BRANCH  48  49
ATOM     49  C   UNL     1       9.145   3.558  -1.603  1.00  0.00     0.416 C 
ATOM     50  F   UNL     1       9.298   4.491  -0.620  1.00  0.00    -0.166 F 
ATOM     51  F   UNL     1      10.356   3.476  -2.225  1.00  0.00    -0.166 F 
ATOM     52  F   UNL     1       8.295   4.110  -2.512  1.00  0.00    -0.166 F 
ENDBRANCH  48  49
ENDBRANCH  38  43
ENDBRANCH  34  37
ENDBRANCH  32  33
ENDBRANCH  26  27
ENDBRANCH   1  26
TORSDOF 12
