REMARK SMILES CC(=O)CCCCn1cnc2c1c(=O)n(C)c(=O)n2C
REMARK SMILES IDX 6 1 7 2 8 3 19 4 11 5 17 6 12 7 10 8 15 9 18 10 13 11 9 12
REMARK SMILES IDX 14 13 20 14 16 15 5 16 4 17 2 18 3 19 1 20
REMARK H PARENT
ROOT
ATOM      1  C   UNL     1       1.700   0.884  -0.314  1.00  0.00     0.022 C 
ENDROOT
BRANCH   1   2
ATOM      2  C   UNL     1       0.587   1.883   0.009  1.00  0.00     0.124 C 
BRANCH   2   3
ATOM      3  N   UNL     1      -0.594   1.280   0.592  1.00  0.00    -0.325 N 
ATOM      4  N   UNL     1      -3.625  -0.438   0.660  1.00  0.00    -0.279 N 
ATOM      5  C   UNL     1      -2.474   0.263   0.928  1.00  0.00     0.167 A 
ATOM      6  C   UNL     1      -3.912  -0.801  -0.656  1.00  0.00     0.332 C 
ATOM      7  C   UNL     1      -1.598   0.614  -0.054  1.00  0.00     0.152 A 
ATOM      8  N   UNL     1      -2.064   0.687   2.155  1.00  0.00    -0.218 NA
ATOM      9  N   UNL     1      -2.991  -0.408  -1.648  1.00  0.00    -0.261 N 
ATOM     10  O   UNL     1      -4.926  -1.442  -0.949  1.00  0.00    -0.247 OA
ATOM     11  C   UNL     1      -1.800   0.291  -1.425  1.00  0.00     0.282 C 
ATOM     12  C   UNL     1      -0.927   1.310   1.923  1.00  0.00     0.202 A 
ATOM     13  O   UNL     1      -1.003   0.596  -2.307  1.00  0.00    -0.267 OA
ATOM     14  C   UNL     1      -4.527  -0.796   1.739  1.00  0.00     0.157 C 
ATOM     15  C   UNL     1      -3.311  -0.794  -3.008  1.00  0.00     0.159 C 
ENDBRANCH   2   3
ENDBRANCH   1   2
BRANCH   1  16
ATOM     16  C   UNL     1       2.292   0.223   0.938  1.00  0.00     0.010 C 
BRANCH  16  17
ATOM     17  C   UNL     1       3.508  -0.646   0.615  1.00  0.00     0.075 C 
BRANCH  17  18
ATOM     18  C   UNL     1       4.760   0.158   0.308  1.00  0.00     0.129 C 
ATOM     19  O   UNL     1       4.811   1.381   0.431  1.00  0.00    -0.300 OA
ATOM     20  C   UNL     1       5.964  -0.630  -0.140  1.00  0.00     0.087 C 
ENDBRANCH  17  18
ENDBRANCH  16  17
ENDBRANCH   1  16
TORSDOF 5
