REMARK SMILES CC(C)=CCC/C(C)=C/C=C/C(C)=C/C=C/C(C)=C/C=C/C=C(C)/C=C/C=C(C)/C=C/C=C(\C)CCC=C(C)C
REMARK SMILES IDX 20 1 21 2 19 3 17 4 18 5 16 6 15 7 14 8 12 9 13 10 11 11
REMARK SMILES IDX 10 12 9 13 7 14 8 15 6 16 5 17 4 18 2 19 1 20 3 21 22 22
REMARK SMILES IDX 23 23 24 24 25 25 26 26 27 27 28 28 29 29 30 30 31 31 32 32
REMARK SMILES IDX 33 33 34 34 35 35 36 36 37 37 38 38 39 39 40 40
REMARK H PARENT
ROOT
ATOM      1  C   UNL     1       0.381   0.756  -0.216  1.00  0.00     0.000 C 
ATOM      2  C   UNL     1      -0.439  -0.307  -0.286  1.00  0.00     0.000 C 
ENDROOT
BRANCH   1   3
ATOM      3  C   UNL     1       1.824   0.619  -0.189  1.00  0.00     0.003 C 
ATOM      4  C   UNL     1       2.749   1.603  -0.166  1.00  0.00    -0.051 C 
ATOM      5  C   UNL     1       2.433   3.077  -0.194  1.00  0.00     0.044 C 
BRANCH   4   6
ATOM      6  C   UNL     1       4.163   1.217  -0.104  1.00  0.00     0.003 C 
ATOM      7  C   UNL     1       5.222   2.045  -0.056  1.00  0.00     0.001 C 
BRANCH   7   8
ATOM      8  C   UNL     1       6.584   1.553   0.039  1.00  0.00     0.003 C 
ATOM      9  C   UNL     1       7.722   2.276   0.120  1.00  0.00    -0.051 C 
ATOM     10  C   UNL     1       7.783   3.783   0.097  1.00  0.00     0.044 C 
BRANCH   9  11
ATOM     11  C   UNL     1       8.991   1.551   0.252  1.00  0.00     0.003 C 
ATOM     12  C   UNL     1      10.213   2.090   0.409  1.00  0.00     0.000 C 
BRANCH  12  13
ATOM     13  C   UNL     1      11.405   1.278   0.551  1.00  0.00    -0.001 C 
ATOM     14  C   UNL     1      12.663   1.705   0.778  1.00  0.00    -0.073 C 
ATOM     15  C   UNL     1      13.079   3.140   0.965  1.00  0.00     0.039 C 
BRANCH  14  16
ATOM     16  C   UNL     1      13.787   0.691   0.914  1.00  0.00     0.035 C 
BRANCH  16  17
ATOM     17  C   UNL     1      14.810   0.762  -0.228  1.00  0.00     0.032 C 
BRANCH  17  18
ATOM     18  C   UNL     1      15.851  -0.317  -0.092  1.00  0.00    -0.028 C 
ATOM     19  C   UNL     1      15.974  -1.441  -0.825  1.00  0.00    -0.080 C 
ATOM     20  C   UNL     1      15.043  -1.860  -1.929  1.00  0.00     0.039 C 
ATOM     21  C   UNL     1      17.100  -2.408  -0.567  1.00  0.00     0.039 C 
ENDBRANCH  17  18
ENDBRANCH  16  17
ENDBRANCH  14  16
ENDBRANCH  12  13
ENDBRANCH   9  11
ENDBRANCH   7   8
ENDBRANCH   4   6
ENDBRANCH   1   3
BRANCH   2  22
ATOM     22  C   UNL     1      -1.884  -0.192  -0.286  1.00  0.00     0.003 C 
ATOM     23  C   UNL     1      -2.788  -1.189  -0.398  1.00  0.00    -0.051 C 
ATOM     24  C   UNL     1      -2.436  -2.647  -0.569  1.00  0.00     0.044 C 
BRANCH  23  25
ATOM     25  C   UNL     1      -4.216  -0.845  -0.350  1.00  0.00     0.003 C 
ATOM     26  C   UNL     1      -5.247  -1.698  -0.476  1.00  0.00     0.001 C 
BRANCH  26  27
ATOM     27  C   UNL     1      -6.633  -1.273  -0.403  1.00  0.00     0.003 C 
ATOM     28  C   UNL     1      -7.735  -2.043  -0.537  1.00  0.00    -0.051 C 
ATOM     29  C   UNL     1      -7.715  -3.529  -0.804  1.00  0.00     0.044 C 
BRANCH  28  30
ATOM     30  C   UNL     1      -9.049  -1.404  -0.408  1.00  0.00     0.003 C 
ATOM     31  C   UNL     1     -10.245  -2.004  -0.532  1.00  0.00     0.000 C 
BRANCH  31  32
ATOM     32  C   UNL     1     -11.501  -1.296  -0.370  1.00  0.00    -0.001 C 
ATOM     33  C   UNL     1     -12.740  -1.803  -0.539  1.00  0.00    -0.073 C 
ATOM     34  C   UNL     1     -13.032  -3.218  -0.984  1.00  0.00     0.039 C 
BRANCH  33  35
ATOM     35  C   UNL     1     -14.016  -1.002  -0.304  1.00  0.00     0.035 C 
BRANCH  35  36
ATOM     36  C   UNL     1     -13.887   0.407   0.291  1.00  0.00     0.032 C 
BRANCH  36  37
ATOM     37  C   UNL     1     -15.237   1.062   0.434  1.00  0.00    -0.028 C 
ATOM     38  C   UNL     1     -15.945   1.267   1.562  1.00  0.00    -0.080 C 
ATOM     39  C   UNL     1     -17.282   1.959   1.512  1.00  0.00     0.039 C 
ATOM     40  C   UNL     1     -15.523   0.841   2.941  1.00  0.00     0.039 C 
ENDBRANCH  36  37
ENDBRANCH  35  36
ENDBRANCH  33  35
ENDBRANCH  31  32
ENDBRANCH  28  30
ENDBRANCH  26  27
ENDBRANCH  23  25
ENDBRANCH   2  22
TORSDOF 16
