REMARK SMILES [O]1[O][Mg]1
REMARK SMILES IDX 1 1 2 2 3 3
REMARK H PARENT
ROOT
ATOM      1  O   UNL     1      -0.552  -0.596   0.048  1.00  0.00    -0.255 OA
ATOM      2  O   UNL     1      -0.599   0.658  -0.309  1.00  0.00    -0.255 OA
ATOM      3  Mg  UNL     1       1.151  -0.062  -0.877  1.00  0.00     0.509 Mg
ENDROOT
TORSDOF 0
