REMARK SMILES CCOC(=O)CC(SP(=S)(OC)OC)C(=O)OCC
REMARK SMILES IDX 6 1 4 2 5 3 3 4 2 5 1 6 7 7 8 8 9 9 10 10 11 11 12 12 13 13
REMARK SMILES IDX 14 14 15 15 16 16 17 17 18 18 19 19
REMARK H PARENT
ROOT
ATOM      1  C   UNL     1      -0.349   1.242  -0.049  1.00  0.00     0.149 C 
ENDROOT
BRANCH   1   2
ATOM      2  C   UNL     1      -1.435   2.011  -0.756  1.00  0.00     0.307 C 
ATOM      3  O   UNL     1      -1.613   2.010  -1.964  1.00  0.00    -0.252 OA
BRANCH   2   4
ATOM      4  O   UNL     1      -2.170   2.717   0.149  1.00  0.00    -0.466 OA
BRANCH   4   5
ATOM      5  C   UNL     1      -3.240   3.505  -0.396  1.00  0.00     0.229 C 
ATOM      6  C   UNL     1      -2.724   4.861  -0.840  1.00  0.00     0.049 C 
ENDBRANCH   4   5
ENDBRANCH   2   4
ENDBRANCH   1   2
BRANCH   1   7
ATOM      7  C   UNL     1      -0.962   0.091   0.748  1.00  0.00     0.177 C 
BRANCH   7   8
ATOM      8  S   UNL     1       0.038  -0.240   2.249  1.00  0.00    -0.054 SA
BRANCH   8   9
ATOM      9  P   UNL     1       1.909  -0.934   1.574  1.00  0.00     0.247 P 
ATOM     10  S   UNL     1       2.711  -2.406   2.570  1.00  0.00    -0.026 S 
BRANCH   9  11
ATOM     11  O   UNL     1       2.806   0.420   1.469  1.00  0.00    -0.325 OA
ATOM     12  C   UNL     1       4.207   0.387   1.665  1.00  0.00     0.204 C 
ENDBRANCH   9  11
BRANCH   9  13
ATOM     13  O   UNL     1       1.712  -1.262  -0.001  1.00  0.00    -0.325 OA
ATOM     14  C   UNL     1       2.820  -1.513  -0.839  1.00  0.00     0.204 C 
ENDBRANCH   9  13
ENDBRANCH   8   9
ENDBRANCH   7   8
BRANCH   7  15
ATOM     15  C   UNL     1      -1.124  -1.165  -0.109  1.00  0.00     0.320 C 
ATOM     16  O   UNL     1      -1.054  -1.184  -1.331  1.00  0.00    -0.251 OA
BRANCH  15  17
ATOM     17  O   UNL     1      -1.423  -2.252   0.659  1.00  0.00    -0.465 OA
BRANCH  17  18
ATOM     18  C   UNL     1      -1.630  -3.488  -0.042  1.00  0.00     0.229 C 
ATOM     19  C   UNL     1      -0.303  -4.185  -0.289  1.00  0.00     0.049 C 
ENDBRANCH  17  18
ENDBRANCH  15  17
ENDBRANCH   7  15
ENDBRANCH   1   7
TORSDOF 11
