REMARK SMILES OC1(c2ccc(Cl)cc2)c2ccccc2C2=NCCN21
REMARK SMILES IDX 2 1 20 2 19 3 18 4 17 5 16 6 15 7 14 8 13 9 12 10 11 11
REMARK SMILES IDX 10 12 1 13 3 15 4 16 9 17 5 18 8 19 6 20 7 21
REMARK H PARENT 1 14
ROOT
ATOM      1  C   UNL     1       0.116  -0.196   0.700  1.00  0.00     0.193 C 
ATOM      2  N   UNL     1      -0.916  -1.073   0.190  1.00  0.00    -0.319 N 
ATOM      3  C   UNL     1      -1.245  -2.395   0.627  1.00  0.00     0.145 C 
ATOM      4  C   UNL     1      -2.693  -2.490   0.072  1.00  0.00     0.166 C 
ATOM      5  N   UNL     1      -3.190  -1.075  -0.125  1.00  0.00    -0.266 NA
ATOM      6  C   UNL     1      -2.084  -0.402  -0.030  1.00  0.00     0.134 C 
ATOM      7  C   UNL     1      -1.846   1.024  -0.006  1.00  0.00     0.025 A 
ATOM      8  C   UNL     1      -2.679   2.087  -0.276  1.00  0.00     0.012 A 
ATOM      9  C   UNL     1      -2.140   3.364  -0.116  1.00  0.00     0.001 A 
ATOM     10  C   UNL     1      -0.809   3.538   0.317  1.00  0.00     0.001 A 
ATOM     11  C   UNL     1       0.012   2.439   0.601  1.00  0.00     0.010 A 
ATOM     12  C   UNL     1      -0.516   1.169   0.432  1.00  0.00     0.020 A 
ENDROOT
BRANCH   1  13
ATOM     13  O   UNL     1       0.232  -0.379   2.099  1.00  0.00    -0.363 OA
ATOM     14  H   UNL     1      -0.622  -0.090   2.460  1.00  0.00     0.214 HD
ENDBRANCH   1  13
BRANCH   1  15
ATOM     15  C   UNL     1       1.438  -0.422  -0.020  1.00  0.00     0.009 A 
ATOM     16  C   UNL     1       1.490  -0.503  -1.426  1.00  0.00     0.010 A 
ATOM     17  C   UNL     1       2.648  -0.531   0.691  1.00  0.00     0.010 A 
ATOM     18  C   UNL     1       2.703  -0.693  -2.095  1.00  0.00     0.021 A 
ATOM     19  C   UNL     1       3.862  -0.721   0.023  1.00  0.00     0.021 A 
ATOM     20  C   UNL     1       3.883  -0.801  -1.366  1.00  0.00     0.041 A 
ATOM     21  Cl  UNL     1       5.378  -1.033  -2.187  1.00  0.00    -0.084 Cl
ENDBRANCH   1  15
TORSDOF 2
