REMARK SMILES CN(C)CCOC(=O)COc1ccc(Cl)cc1
REMARK SMILES IDX 7 1 8 2 6 3 5 4 4 5 2 6 1 7 3 8 9 9 10 10 11 11 12 12 17 13
REMARK SMILES IDX 13 14 16 15 14 16 15 17
REMARK H PARENT
ROOT
ATOM      1  C   UNL     1      -0.113   0.836   0.201  1.00  0.00     0.344 C 
ATOM      2  O   UNL     1      -0.002   1.971   0.641  1.00  0.00    -0.248 OA
ENDROOT
BRANCH   1   3
ATOM      3  O   UNL     1       0.937   0.024  -0.131  1.00  0.00    -0.462 OA
BRANCH   3   4
ATOM      4  C   UNL     1       2.229   0.627   0.062  1.00  0.00     0.248 C 
BRANCH   4   5
ATOM      5  C   UNL     1       3.303  -0.410  -0.301  1.00  0.00     0.125 C 
BRANCH   5   6
ATOM      6  N   UNL     1       4.681   0.113  -0.298  1.00  0.00    -0.306 NA
ATOM      7  C   UNL     1       5.122   0.491   1.046  1.00  0.00     0.105 C 
ATOM      8  C   UNL     1       5.597  -0.885  -0.857  1.00  0.00     0.105 C 
ENDBRANCH   5   6
ENDBRANCH   4   5
ENDBRANCH   3   4
ENDBRANCH   1   3
BRANCH   1   9
ATOM      9  C   UNL     1      -1.417   0.097  -0.064  1.00  0.00     0.351 C 
BRANCH   9  10
ATOM     10  O   UNL     1      -2.534   0.905   0.285  1.00  0.00    -0.482 OA
BRANCH  10  11
ATOM     11  C   UNL     1      -3.777   0.368   0.099  1.00  0.00     0.120 A 
ATOM     12  C   UNL     1      -4.057  -0.903  -0.405  1.00  0.00     0.048 A 
ATOM     13  C   UNL     1      -4.832   1.211   0.462  1.00  0.00     0.048 A 
ATOM     14  C   UNL     1      -5.385  -1.325  -0.543  1.00  0.00     0.024 A 
ATOM     15  C   UNL     1      -6.158   0.792   0.325  1.00  0.00     0.024 A 
ATOM     16  C   UNL     1      -6.429  -0.477  -0.178  1.00  0.00     0.041 A 
ATOM     17  Cl  UNL     1      -8.057  -1.001  -0.350  1.00  0.00    -0.084 Cl
ENDBRANCH  10  11
ENDBRANCH   9  10
ENDBRANCH   1   9
TORSDOF 7
