REMARK SMILES CC(CCc1ccc2c(c1)OCO2)NCC(O)c1ccc(O)c(C(N)=O)c1
REMARK SMILES IDX 14 1 2 3 1 4 3 5 4 6 5 7 10 8 6 9 9 10 7 11 8 12 11 13 13 14
REMARK SMILES IDX 12 15 15 16 16 17 17 18 18 20 27 21 19 22 23 23 20 24 21 25
REMARK SMILES IDX 24 26 25 27 26 28 22 31
REMARK H PARENT 14 2 17 19 25 29 25 30 22 32
ROOT
ATOM      1  N   UNL     1      -0.380   1.403  -0.551  1.00  0.00    -0.311 NA
ATOM      2  H   UNL     1      -0.893   0.809   0.107  1.00  0.00     0.123 HD
ENDROOT
BRANCH   1   3
ATOM      3  C   UNL     1       0.749   2.034   0.145  1.00  0.00     0.051 C 
ATOM      4  C   UNL     1       0.310   2.714   1.447  1.00  0.00     0.024 C 
BRANCH   3   5
ATOM      5  C   UNL     1       1.807   0.959   0.462  1.00  0.00     0.023 C 
BRANCH   5   6
ATOM      6  C   UNL     1       2.395   0.311  -0.798  1.00  0.00     0.037 C 
BRANCH   6   7
ATOM      7  C   UNL     1       3.473  -0.689  -0.451  1.00  0.00    -0.044 A 
ATOM      8  C   UNL     1       4.817  -0.290  -0.392  1.00  0.00     0.054 A 
ATOM      9  C   UNL     1       3.127  -2.028  -0.156  1.00  0.00     0.008 A 
ATOM     10  C   UNL     1       5.761  -1.237  -0.053  1.00  0.00     0.166 A 
ATOM     11  C   UNL     1       4.107  -2.966   0.185  1.00  0.00     0.051 A 
ATOM     12  C   UNL     1       5.415  -2.538   0.227  1.00  0.00     0.165 A 
ATOM     13  O   UNL     1       7.100  -1.022   0.049  1.00  0.00    -0.454 OA
ATOM     14  O   UNL     1       6.493  -3.306   0.539  1.00  0.00    -0.454 OA
ATOM     15  C   UNL     1       7.557  -2.340   0.419  1.00  0.00     0.468 C 
ENDBRANCH   6   7
ENDBRANCH   5   6
ENDBRANCH   3   5
ENDBRANCH   1   3
BRANCH   1  16
ATOM     16  C   UNL     1      -1.314   2.374  -1.155  1.00  0.00     0.117 C 
BRANCH  16  17
ATOM     17  C   UNL     1      -2.371   1.654  -2.033  1.00  0.00     0.158 C 
BRANCH  17  18
ATOM     18  O   UNL     1      -1.726   0.679  -2.857  1.00  0.00    -0.387 OA
ATOM     19  H   UNL     1      -0.878   0.494  -2.403  1.00  0.00     0.211 HD
ENDBRANCH  17  18
BRANCH  17  20
ATOM     20  C   UNL     1      -3.479   1.005  -1.226  1.00  0.00    -0.017 A 
ATOM     21  C   UNL     1      -3.347  -0.294  -0.705  1.00  0.00     0.024 A 
ATOM     22  C   UNL     1      -4.657   1.714  -0.958  1.00  0.00     0.010 A 
ATOM     23  C   UNL     1      -4.360  -0.882   0.073  1.00  0.00     0.081 A 
ATOM     24  C   UNL     1      -5.678   1.140  -0.197  1.00  0.00     0.047 A 
ATOM     25  C   UNL     1      -5.531  -0.151   0.318  1.00  0.00     0.128 A 
BRANCH  23  26
ATOM     26  C   UNL     1      -4.093  -2.255   0.598  1.00  0.00     0.252 C 
ATOM     27  N   UNL     1      -5.121  -2.917   1.201  1.00  0.00    -0.365 N 
ATOM     28  O   UNL     1      -2.988  -2.778   0.504  1.00  0.00    -0.269 OA
ATOM     29  H   UNL     1      -6.001  -2.445   1.381  1.00  0.00     0.159 HD
ATOM     30  H   UNL     1      -4.934  -3.813   1.629  1.00  0.00     0.159 HD
ENDBRANCH  23  26
BRANCH  25  31
ATOM     31  O   UNL     1      -6.551  -0.676   1.070  1.00  0.00    -0.507 OA
ATOM     32  H   UNL     1      -7.272  -0.024   1.119  1.00  0.00     0.293 HD
ENDBRANCH  25  31
ENDBRANCH  17  20
ENDBRANCH  16  17
ENDBRANCH   1  16
TORSDOF 10
