REMARK SMILES COc1ccc2[nH]cc(CCNC(C)=O)c2c1
REMARK SMILES IDX 10 1 9 2 3 3 17 4 4 5 16 6 5 7 6 8 7 9 8 10 2 12 1 13 11 14
REMARK SMILES IDX 12 15 13 16 15 17 14 19
REMARK H PARENT 7 11 12 18
ROOT
ATOM      1  C   UNL     1       1.662  -0.885   0.300  1.00  0.00     0.059 C 
ENDROOT
BRANCH   1   2
ATOM      2  C   UNL     1       0.328  -1.560   0.223  1.00  0.00    -0.021 A 
ATOM      3  C   UNL     1      -2.753   0.709   0.461  1.00  0.00     0.119 A 
ATOM      4  C   UNL     1      -1.384   0.410   0.435  1.00  0.00     0.057 A 
ATOM      5  C   UNL     1      -3.691  -0.315   0.345  1.00  0.00     0.048 A 
ATOM      6  C   UNL     1      -0.954  -0.926   0.290  1.00  0.00     0.006 A 
ATOM      7  C   UNL     1      -3.293  -1.651   0.201  1.00  0.00     0.030 A 
ATOM      8  C   UNL     1      -1.921  -1.924   0.177  1.00  0.00     0.046 A 
ATOM      9  N   UNL     1      -1.255  -3.120   0.052  1.00  0.00    -0.361 N 
ATOM     10  C   UNL     1       0.098  -2.914   0.076  1.00  0.00     0.087 A 
ATOM     11  H   UNL     1      -1.706  -4.019  -0.043  1.00  0.00     0.166 HD
BRANCH   3  12
ATOM     12  O   UNL     1      -3.036   2.042   0.605  1.00  0.00    -0.497 OA
ATOM     13  C   UNL     1      -4.407   2.410   0.651  1.00  0.00     0.278 C 
ENDBRANCH   3  12
ENDBRANCH   1   2
BRANCH   1  14
ATOM     14  C   UNL     1       2.067  -0.249  -1.032  1.00  0.00     0.120 C 
BRANCH  14  15
ATOM     15  N   UNL     1       3.411   0.301  -0.999  1.00  0.00    -0.356 N 
ATOM     16  C   UNL     1       3.680   1.510  -0.402  1.00  0.00     0.216 C 
ATOM     17  O   UNL     1       2.827   2.215   0.125  1.00  0.00    -0.275 OA
ATOM     18  H   UNL     1       4.174  -0.278  -1.321  1.00  0.00     0.163 HD
ATOM     19  C   UNL     1       5.134   1.900  -0.426  1.00  0.00     0.114 C 
ENDBRANCH  14  15
ENDBRANCH   1  14
TORSDOF 4
