REMARK SMILES C[N+](C)(C)NCCC(=O)[O-]
REMARK SMILES IDX 6 1 5 2 2 4 1 5 3 6 4 7 7 8 8 9 9 10 10 11
REMARK H PARENT 5 3
ROOT
ATOM      1  C   UNL     1       1.128  -0.988   0.465  1.00  0.00     0.147 C 
ENDROOT
BRANCH   1   2
ATOM      2  N   UNL     1       0.179  -0.700  -0.644  1.00  0.00    -0.168 NA
ATOM      3  H   UNL     1       0.712  -0.105  -1.325  1.00  0.00     0.187 HD
BRANCH   2   4
ATOM      4  N   UNL     1      -1.072  -0.007  -0.243  1.00  0.00    -0.253 N 
ATOM      5  C   UNL     1      -0.746   1.398   0.278  1.00  0.00     0.357 C 
ATOM      6  C   UNL     1      -1.821  -0.850   0.761  1.00  0.00     0.357 C 
ATOM      7  C   UNL     1      -1.871   0.119  -1.535  1.00  0.00     0.357 C 
ENDBRANCH   2   4
ENDBRANCH   1   2
BRANCH   1   8
ATOM      8  C   UNL     1       2.561  -0.588   0.123  1.00  0.00     0.073 C 
BRANCH   8   9
ATOM      9  C   UNL     1       2.453   0.896  -0.179  1.00  0.00     0.043 C 
ATOM     10  O   UNL     1       2.631   1.674   0.790  1.00  0.00    -0.550 OA
ATOM     11  O   UNL     1       2.014   1.136  -1.345  1.00  0.00    -0.550 OA
ENDBRANCH   8   9
ENDBRANCH   1   8
TORSDOF 4
