REMARK SMILES COC(=O)[C@@H](N)Cc1ccc(O)c(O)c1
REMARK SMILES IDX 5 1 3 2 4 3 2 4 1 5 6 6 7 9 8 10 15 11 9 12 13 13 10 14
REMARK SMILES IDX 11 15 14 16 12 18
REMARK H PARENT 6 7 6 8 14 17 12 19
ROOT
ATOM      1  C   UNL     1      -1.085  -1.689   0.074  1.00  0.00     0.166 C 
ENDROOT
BRANCH   1   2
ATOM      2  C   UNL     1      -2.343  -0.922   0.540  1.00  0.00     0.322 C 
ATOM      3  O   UNL     1      -3.373  -1.477   0.913  1.00  0.00    -0.250 OA
BRANCH   2   4
ATOM      4  O   UNL     1      -2.142   0.421   0.573  1.00  0.00    -0.468 OA
ATOM      5  C   UNL     1      -3.260   1.172   1.048  1.00  0.00     0.282 C 
ENDBRANCH   2   4
ENDBRANCH   1   2
BRANCH   1   6
ATOM      6  N   UNL     1      -1.499  -3.040  -0.392  1.00  0.00    -0.318 NA
ATOM      7  H   UNL     1      -2.237  -3.377   0.235  1.00  0.00     0.119 HD
ATOM      8  H   UNL     1      -0.720  -3.687  -0.295  1.00  0.00     0.119 HD
ENDBRANCH   1   6
BRANCH   1   9
ATOM      9  C   UNL     1      -0.324  -0.991  -1.069  1.00  0.00     0.066 C 
BRANCH   9  10
ATOM     10  C   UNL     1       0.713   0.008  -0.596  1.00  0.00    -0.042 A 
ATOM     11  C   UNL     1       1.891  -0.434   0.032  1.00  0.00     0.054 A 
ATOM     12  C   UNL     1       0.518   1.386  -0.795  1.00  0.00     0.008 A 
ATOM     13  C   UNL     1       2.835   0.496   0.456  1.00  0.00     0.157 A 
ATOM     14  C   UNL     1       1.470   2.311  -0.362  1.00  0.00     0.050 A 
ATOM     15  C   UNL     1       2.620   1.857   0.262  1.00  0.00     0.157 A 
BRANCH  13  16
ATOM     16  O   UNL     1       3.996   0.118   1.072  1.00  0.00    -0.504 OA
ATOM     17  H   UNL     1       4.019  -0.853   1.108  1.00  0.00     0.293 HD
ENDBRANCH  13  16
BRANCH  15  18
ATOM     18  O   UNL     1       3.552   2.762   0.685  1.00  0.00    -0.504 OA
ATOM     19  H   UNL     1       4.260   2.216   1.080  1.00  0.00     0.293 HD
ENDBRANCH  15  18
ENDBRANCH   9  10
ENDBRANCH   1   9
TORSDOF 7
