REMARK SMILES CC1=C/C(=N\OCC(=O)O)c2ccccc2C1=O
REMARK SMILES IDX 7 1 6 2 5 3 2 4 3 5 17 6 4 7 16 8 18 9 11 10 15 11 12 12
REMARK SMILES IDX 14 13 13 14 1 15 8 16 9 17 10 18
REMARK H PARENT 10 19
ROOT
ATOM      1  C   UNL     1       3.489  -0.278  -1.047  1.00  0.00     0.385 C 
ENDROOT
BRANCH   1   2
ATOM      2  O   UNL     1       2.325   0.296  -0.466  1.00  0.00    -0.383 OA
BRANCH   2   3
ATOM      3  N   UNL     1       1.243  -0.577  -0.661  1.00  0.00    -0.086 NA
ATOM      4  C   UNL     1      -1.143   1.637   1.072  1.00  0.00    -0.001 C 
ATOM      5  C   UNL     1       0.011   1.190   0.560  1.00  0.00     0.040 C 
ATOM      6  C   UNL     1      -2.385   0.835   0.952  1.00  0.00     0.189 C 
ATOM      7  C   UNL     1       0.140  -0.112  -0.153  1.00  0.00     0.111 C 
ATOM      8  C   UNL     1      -2.307  -0.463   0.255  1.00  0.00     0.032 A 
ATOM      9  O   UNL     1      -3.446   1.236   1.417  1.00  0.00    -0.289 OA
ATOM     10  C   UNL     1      -1.102  -0.920  -0.276  1.00  0.00     0.015 A 
ATOM     11  C   UNL     1      -3.471  -1.238   0.130  1.00  0.00     0.013 A 
ATOM     12  C   UNL     1      -1.066  -2.161  -0.933  1.00  0.00     0.011 A 
ATOM     13  C   UNL     1      -3.428  -2.469  -0.524  1.00  0.00     0.001 A 
ATOM     14  C   UNL     1      -2.226  -2.930  -1.055  1.00  0.00     0.001 A 
ATOM     15  C   UNL     1      -1.263   2.948   1.786  1.00  0.00     0.049 C 
ENDBRANCH   2   3
ENDBRANCH   1   2
BRANCH   1  16
ATOM     16  C   UNL     1       4.667   0.649  -0.847  1.00  0.00     0.344 C 
ATOM     17  O   UNL     1       4.684   1.732  -0.284  1.00  0.00    -0.248 OA
BRANCH  16  18
ATOM     18  O   UNL     1       5.806   0.152  -1.381  1.00  0.00    -0.479 OA
ATOM     19  H   UNL     1       6.476   0.840  -1.183  1.00  0.00     0.296 HD
ENDBRANCH  16  18
ENDBRANCH   1  16
TORSDOF 4
