REMARK SMILES Cc1cc(OS(=O)(=O)O)c2ccccc2c1OS(=O)(=O)O
REMARK SMILES IDX 1 1 2 2 3 3 4 4 10 5 11 6 12 7 13 8 14 9 15 10 16 11 17 12
REMARK SMILES IDX 18 13 19 14 20 15 21 16 5 18 6 19 7 20 8 21 9 22
REMARK H PARENT 21 17 9 23
ROOT
ATOM      1  C   UNL     1      -1.104   2.877  -1.173  1.00  0.00     0.048 C 
ATOM      2  C   UNL     1      -0.456   1.703  -0.493  1.00  0.00    -0.003 A 
ATOM      3  C   UNL     1       0.869   1.391  -0.809  1.00  0.00     0.056 A 
ATOM      4  C   UNL     1       1.503   0.306  -0.199  1.00  0.00     0.153 A 
ATOM      5  C   UNL     1       0.858  -0.472   0.783  1.00  0.00     0.029 A 
ATOM      6  C   UNL     1       1.504  -1.536   1.450  1.00  0.00     0.013 A 
ATOM      7  C   UNL     1       0.851  -2.284   2.428  1.00  0.00     0.001 A 
ATOM      8  C   UNL     1      -0.460  -1.980   2.766  1.00  0.00     0.001 A 
ATOM      9  C   UNL     1      -1.119  -0.935   2.118  1.00  0.00     0.013 A 
ATOM     10  C   UNL     1      -0.487  -0.172   1.110  1.00  0.00     0.030 A 
ATOM     11  C   UNL     1      -1.138   0.881   0.419  1.00  0.00     0.156 A 
ENDROOT
BRANCH  11  12
ATOM     12  O   UNL     1      -2.461   1.145   0.696  1.00  0.00    -0.361 OA
BRANCH  12  13
ATOM     13  S   UNL     1      -3.618   0.445  -0.228  1.00  0.00     0.446 S 
ATOM     14  O   UNL     1      -4.906   0.806   0.321  1.00  0.00    -0.158 OA
ATOM     15  O   UNL     1      -3.314   0.656  -1.627  1.00  0.00    -0.158 OA
BRANCH  13  16
ATOM     16  O   UNL     1      -3.420  -1.138   0.020  1.00  0.00    -0.254 OA
ATOM     17  H   UNL     1      -2.694  -1.449  -0.559  1.00  0.00     0.237 HD
ENDBRANCH  13  16
ENDBRANCH  12  13
ENDBRANCH  11  12
BRANCH   4  18
ATOM     18  O   UNL     1       2.811   0.040  -0.525  1.00  0.00    -0.361 OA
BRANCH  18  19
ATOM     19  S   UNL     1       3.104  -0.675  -1.963  1.00  0.00     0.446 S 
ATOM     20  O   UNL     1       2.328  -1.890  -2.073  1.00  0.00    -0.158 OA
ATOM     21  O   UNL     1       3.091   0.343  -2.993  1.00  0.00    -0.158 OA
BRANCH  19  22
ATOM     22  O   UNL     1       4.653  -1.101  -1.826  1.00  0.00    -0.254 OA
ATOM     23  H   UNL     1       5.194  -0.359  -2.164  1.00  0.00     0.237 HD
ENDBRANCH  19  22
ENDBRANCH  18  19
ENDBRANCH   4  18
TORSDOF 6
