REMARK SMILES O=S(=O)(O)CCS
REMARK SMILES IDX 5 1 2 2 1 3 3 4 4 5 6 7 7 8
REMARK H PARENT 4 6 7 9
ROOT
ATOM      1  C   UNL     1      -0.126  -0.492   0.803  1.00  0.00     0.178 C 
ENDROOT
BRANCH   1   2
ATOM      2  S   UNL     1      -1.246  -0.259  -0.565  1.00  0.00     0.265 S 
ATOM      3  O   UNL     1      -2.598  -0.176  -0.061  1.00  0.00    -0.200 OA
ATOM      4  O   UNL     1      -0.884  -1.135  -1.654  1.00  0.00    -0.200 OA
BRANCH   2   5
ATOM      5  O   UNL     1      -0.848   1.250  -0.976  1.00  0.00    -0.286 OA
ATOM      6  H   UNL     1      -1.665   1.796  -0.941  1.00  0.00     0.234 HD
ENDBRANCH   2   5
ENDBRANCH   1   2
BRANCH   1   7
ATOM      7  C   UNL     1       1.335  -0.502   0.391  1.00  0.00     0.084 C 
BRANCH   7   8
ATOM      8  S   UNL     1       2.069   1.163   0.330  1.00  0.00    -0.178 SA
ATOM      9  H   UNL     1       1.306   1.628  -0.675  1.00  0.00     0.102 HD
ENDBRANCH   7   8
ENDBRANCH   1   7
TORSDOF 4
