REMARK SMILES CC(C(=O)c1ccccc1)N(C)C
REMARK SMILES IDX 1 1 2 2 11 3 12 4 13 5 3 6 4 7 5 8 6 9 10 10 7 11 9 12 8 13
REMARK H PARENT
ROOT
ATOM      1  C   UNL     1      -1.381  -2.003  -0.319  1.00  0.00     0.033 C 
ATOM      2  C   UNL     1      -1.097  -0.535   0.023  1.00  0.00     0.125 C 
ENDROOT
BRANCH   2   3
ATOM      3  N   UNL     1      -2.320   0.318  -0.020  1.00  0.00    -0.300 NA
ATOM      4  C   UNL     1      -3.378  -0.174   0.865  1.00  0.00     0.105 C 
ATOM      5  C   UNL     1      -2.013   1.711   0.322  1.00  0.00     0.105 C 
ENDBRANCH   2   3
BRANCH   2   6
ATOM      6  C   UNL     1      -0.055  -0.041  -1.005  1.00  0.00     0.179 C 
ATOM      7  O   UNL     1      -0.344   0.260  -2.165  1.00  0.00    -0.292 OA
BRANCH   6   8
ATOM      8  C   UNL     1       1.375   0.078  -0.584  1.00  0.00     0.019 A 
ATOM      9  C   UNL     1       2.200   0.959  -1.297  1.00  0.00     0.012 A 
ATOM     10  C   UNL     1       1.917  -0.663   0.473  1.00  0.00     0.012 A 
ATOM     11  C   UNL     1       3.542   1.113  -0.946  1.00  0.00     0.001 A 
ATOM     12  C   UNL     1       3.262  -0.507   0.822  1.00  0.00     0.001 A 
ATOM     13  C   UNL     1       4.071   0.381   0.115  1.00  0.00     0.000 A 
ENDBRANCH   6   8
ENDBRANCH   2   6
TORSDOF 3
