REMARK SMILES CN1C[C@H](CNC(=O)OCc2ccccc2)C[C@@H]2c3cccc4c3c(cn4C)C[C@H]21
REMARK SMILES IDX 6 1 7 2 8 3 5 5 4 6 27 7 26 8 23 9 25 10 22 11 24 12 29 13
REMARK SMILES IDX 21 14 19 15 30 16 20 17 18 18 2 19 17 20 3 21 28 22 1 23
REMARK SMILES IDX 9 24 10 25 11 26 12 27 16 28 13 29 15 30 14 31
REMARK H PARENT 6 4
ROOT
ATOM      1  N   UNL     1       2.357   0.068   0.561  1.00  0.00    -0.321 N 
ATOM      2  C   UNL     1       3.153  -1.001   0.281  1.00  0.00     0.407 C 
ATOM      3  O   UNL     1       2.780  -2.154   0.140  1.00  0.00    -0.225 OA
ATOM      4  H   UNL     1       2.861   0.901   0.834  1.00  0.00     0.167 HD
ENDROOT
BRANCH   1   5
ATOM      5  C   UNL     1       0.958  -0.086   0.900  1.00  0.00     0.124 C 
BRANCH   5   6
ATOM      6  C   UNL     1       0.184   1.238   0.791  1.00  0.00     0.023 C 
ATOM      7  N   UNL     1      -6.346  -1.196  -0.216  1.00  0.00    -0.350 N 
ATOM      8  C   UNL     1      -5.550  -1.113  -1.339  1.00  0.00     0.090 A 
ATOM      9  C   UNL     1      -5.766  -0.516   0.837  1.00  0.00     0.048 A 
ATOM     10  C   UNL     1      -4.434  -0.382  -1.003  1.00  0.00    -0.021 A 
ATOM     11  C   UNL     1      -6.162  -0.271   2.156  1.00  0.00     0.027 A 
ATOM     12  C   UNL     1      -4.565  -0.028   0.352  1.00  0.00     0.006 A 
ATOM     13  C   UNL     1      -3.244   0.077  -1.774  1.00  0.00     0.057 C 
ATOM     14  C   UNL     1      -5.294   0.496   2.947  1.00  0.00     0.002 A 
ATOM     15  C   UNL     1      -3.670   0.709   1.137  1.00  0.00    -0.034 A 
ATOM     16  C   UNL     1      -2.018   0.355  -0.823  1.00  0.00     0.068 C 
ATOM     17  C   UNL     1      -4.076   0.983   2.451  1.00  0.00     0.005 A 
ATOM     18  C   UNL     1      -2.384   1.185   0.480  1.00  0.00     0.038 C 
ATOM     19  N   UNL     1      -0.789   0.862  -1.500  1.00  0.00    -0.302 NA
ATOM     20  C   UNL     1      -1.197   1.143   1.466  1.00  0.00     0.016 C 
ATOM     21  C   UNL     1       0.049   1.724  -0.656  1.00  0.00     0.090 C 
ATOM     22  C   UNL     1      -7.615  -1.885  -0.158  1.00  0.00     0.149 C 
ATOM     23  C   UNL     1      -0.995   1.492  -2.800  1.00  0.00     0.105 C 
ENDBRANCH   5   6
ENDBRANCH   1   5
BRANCH   2  24
ATOM     24  O   UNL     1       4.435  -0.578   0.205  1.00  0.00    -0.445 OA
BRANCH  24  25
ATOM     25  C   UNL     1       5.366  -1.623  -0.082  1.00  0.00     0.270 C 
BRANCH  25  26
ATOM     26  C   UNL     1       6.753  -1.031  -0.080  1.00  0.00    -0.011 A 
ATOM     27  C   UNL     1       7.126  -0.097  -1.057  1.00  0.00     0.007 A 
ATOM     28  C   UNL     1       7.687  -1.397   0.899  1.00  0.00     0.007 A 
ATOM     29  C   UNL     1       8.406   0.457  -1.058  1.00  0.00     0.000 A 
ATOM     30  C   UNL     1       8.968  -0.842   0.897  1.00  0.00     0.000 A 
ATOM     31  C   UNL     1       9.327   0.084  -0.081  1.00  0.00     0.000 A 
ENDBRANCH  25  26
ENDBRANCH  24  25
ENDBRANCH   2  24
TORSDOF 5
