REMARK SMILES CN(C)C(=N)NC(=N)N
REMARK SMILES IDX 1 1 2 2 3 3 4 4 5 5 6 6 7 7 9 8 8 9
REMARK H PARENT 5 10 6 11 9 12 9 13 8 14
ROOT
ATOM      1  C   UNL     1      -2.600  -0.762   0.428  1.00  0.00     0.146 C 
ATOM      2  N   UNL     1      -1.407   0.090   0.321  1.00  0.00    -0.349 N 
ATOM      3  C   UNL     1      -1.737   1.431  -0.174  1.00  0.00     0.146 C 
ATOM      4  C   UNL     1      -0.275  -0.514  -0.193  1.00  0.00     0.197 C 
ATOM      5  N   UNL     1      -0.323  -1.591  -0.908  1.00  0.00    -0.269 NA
ATOM      6  N   UNL     1       0.886   0.106   0.166  1.00  0.00    -0.297 N 
ATOM      7  C   UNL     1       2.187  -0.122  -0.148  1.00  0.00     0.192 C 
ATOM      8  N   UNL     1       3.059   0.659   0.536  1.00  0.00    -0.370 N 
ATOM      9  N   UNL     1       2.585  -0.987  -1.015  1.00  0.00    -0.269 NA
ATOM     10  H   UNL     1       0.663  -1.800  -1.153  1.00  0.00     0.191 HD
ATOM     11  H   UNL     1       0.727   0.870   0.799  1.00  0.00     0.173 HD
ATOM     12  H   UNL     1       2.832   0.774   1.518  1.00  0.00     0.159 HD
ATOM     13  H   UNL     1       4.030   0.388   0.437  1.00  0.00     0.159 HD
ATOM     14  H   UNL     1       3.600  -0.959  -1.107  1.00  0.00     0.191 HD
ENDROOT
TORSDOF 0
