REMARK SMILES C[N+]1(C)[C@@H]2CC[C@H]1C[C@H](OC(=O)[C@@H](CO)c1ccccc1)C2
REMARK SMILES IDX 11 1 12 2 10 3 9 4 2 5 7 6 4 7 6 8 8 9 5 10 22 11 1 12 3 13
REMARK SMILES IDX 13 14 14 15 15 16 16 18 17 19 21 20 18 21 20 22 19 23
REMARK H PARENT 15 17
ROOT
ATOM      1  C   UNL     1       1.393  -1.592  -0.732  1.00  0.00     0.316 C 
ATOM      2  O   UNL     1       1.035  -1.898  -1.862  1.00  0.00    -0.251 OA
ENDROOT
BRANCH   1   3
ATOM      3  O   UNL     1       0.536  -1.190   0.257  1.00  0.00    -0.461 OA
BRANCH   3   4
ATOM      4  C   UNL     1      -0.850  -1.069  -0.111  1.00  0.00     0.188 C 
ATOM      5  N   UNL     1      -2.956   0.958   0.537  1.00  0.00    -0.323 N 
ATOM      6  C   UNL     1      -3.072  -0.497   1.033  1.00  0.00     0.189 C 
ATOM      7  C   UNL     1      -2.514   0.708  -0.918  1.00  0.00     0.189 C 
ATOM      8  C   UNL     1      -3.832  -1.188  -0.111  1.00  0.00     0.071 C 
ATOM      9  C   UNL     1      -1.670  -1.101   1.189  1.00  0.00     0.110 C 
ATOM     10  C   UNL     1      -3.468  -0.406  -1.379  1.00  0.00     0.071 C 
ATOM     11  C   UNL     1      -1.062   0.213  -0.937  1.00  0.00     0.110 C 
ATOM     12  C   UNL     1      -4.318   1.680   0.593  1.00  0.00     0.334 C 
ATOM     13  C   UNL     1      -2.009   1.844   1.353  1.00  0.00     0.334 C 
ENDBRANCH   3   4
ENDBRANCH   1   3
BRANCH   1  14
ATOM     14  C   UNL     1       2.827  -1.537  -0.239  1.00  0.00     0.155 C 
BRANCH  14  15
ATOM     15  C   UNL     1       3.731  -2.399  -1.128  1.00  0.00     0.176 C 
BRANCH  15  16
ATOM     16  O   UNL     1       4.889  -2.794  -0.392  1.00  0.00    -0.395 OA
ATOM     17  H   UNL     1       5.492  -3.236  -1.017  1.00  0.00     0.210 HD
ENDBRANCH  15  16
ENDBRANCH  14  15
BRANCH  14  18
ATOM     18  C   UNL     1       3.313  -0.098  -0.133  1.00  0.00    -0.032 A 
ATOM     19  C   UNL     1       3.861   0.368   1.071  1.00  0.00     0.005 A 
ATOM     20  C   UNL     1       3.231   0.785  -1.223  1.00  0.00     0.005 A 
ATOM     21  C   UNL     1       4.304   1.686   1.187  1.00  0.00     0.000 A 
ATOM     22  C   UNL     1       3.675   2.103  -1.104  1.00  0.00     0.000 A 
ATOM     23  C   UNL     1       4.209   2.554   0.101  1.00  0.00     0.000 A 
ENDBRANCH  14  18
ENDBRANCH   1  14
TORSDOF 6
