REMARK SMILES CCC1(CC)C(=O)NC(=O)N(C)C1=O
REMARK SMILES IDX 3 1 6 2 7 3 8 4 9 5 10 6 11 7 12 8 13 9 14 10 2 12 1 13 4 14
REMARK SMILES IDX 5 15
REMARK H PARENT 8 11
ROOT
ATOM      1  C   UNL     1       0.484  -0.132   0.035  1.00  0.00     0.128 C 
ATOM      2  C   UNL     1       0.294   0.312  -1.402  1.00  0.00     0.243 C 
ATOM      3  O   UNL     1       1.014  -0.032  -2.335  1.00  0.00    -0.273 OA
ATOM      4  N   UNL     1      -0.719   1.200  -1.607  1.00  0.00    -0.277 N 
ATOM      5  C   UNL     1      -1.887   1.193  -0.907  1.00  0.00     0.330 C 
ATOM      6  O   UNL     1      -2.886   1.703  -1.409  1.00  0.00    -0.248 OA
ATOM      7  N   UNL     1      -1.885   0.536   0.308  1.00  0.00    -0.266 N 
ATOM      8  C   UNL     1      -3.143   0.475   1.033  1.00  0.00     0.158 C 
ATOM      9  C   UNL     1      -0.861  -0.300   0.735  1.00  0.00     0.246 C 
ATOM     10  O   UNL     1      -1.003  -1.082   1.678  1.00  0.00    -0.273 OA
ATOM     11  H   UNL     1      -0.824   1.516  -2.563  1.00  0.00     0.174 HD
ENDROOT
BRANCH   1  12
ATOM     12  C   UNL     1       1.308  -1.443   0.107  1.00  0.00     0.023 C 
ATOM     13  C   UNL     1       0.630  -2.659  -0.526  1.00  0.00     0.005 C 
ENDBRANCH   1  12
BRANCH   1  14
ATOM     14  C   UNL     1       1.205   1.017   0.806  1.00  0.00     0.023 C 
ATOM     15  C   UNL     1       2.628   1.324   0.353  1.00  0.00     0.005 C 
ENDBRANCH   1  14
TORSDOF 2
