REMARK SMILES Cc1coc2ccccc2c1=O
REMARK SMILES IDX 1 1 2 2 3 3 4 4 5 5 10 6 9 7 8 8 7 9 6 10 11 11 12 12
REMARK H PARENT
ROOT
ATOM      1  C   UNL     1       3.371  -0.089  -0.007  1.00  0.00     0.052 C 
ATOM      2  C   UNL     1       1.918   0.245   0.046  1.00  0.00     0.032 C 
ATOM      3  C   UNL     1       1.429   1.475   0.250  1.00  0.00     0.203 C 
ATOM      4  O   UNL     1       0.103   1.828   0.306  1.00  0.00    -0.464 OA
ATOM      5  C   UNL     1      -0.828   0.834   0.137  1.00  0.00     0.137 A 
ATOM      6  C   UNL     1      -0.480  -0.497  -0.084  1.00  0.00     0.065 A 
ATOM      7  C   UNL     1      -1.472  -1.469  -0.249  1.00  0.00     0.016 A 
ATOM      8  C   UNL     1      -2.816  -1.100  -0.191  1.00  0.00     0.001 A 
ATOM      9  C   UNL     1      -3.166   0.234   0.031  1.00  0.00     0.004 A 
ATOM     10  C   UNL     1      -2.172   1.202   0.196  1.00  0.00     0.048 A 
ATOM     11  C   UNL     1       0.947  -0.861  -0.142  1.00  0.00     0.195 C 
ATOM     12  O   UNL     1       1.309  -2.015  -0.334  1.00  0.00    -0.289 OA
ENDROOT
TORSDOF 0
