REMARK SMILES CN[C@@H](C)Cc1ccccc1
REMARK SMILES IDX 3 1 4 2 2 3 1 4 5 6 6 7 7 8 11 9 8 10 10 11 9 12
REMARK H PARENT 2 5
ROOT
ATOM      1  C   UNL     1      -1.341  -0.511   0.066  1.00  0.00     0.054 C 
ATOM      2  C   UNL     1      -2.477  -1.541   0.048  1.00  0.00     0.024 C 
ENDROOT
BRANCH   1   3
ATOM      3  N   UNL     1      -1.729   0.700  -0.679  1.00  0.00    -0.317 NA
ATOM      4  C   UNL     1      -2.595   1.584   0.087  1.00  0.00     0.101 C 
ATOM      5  H   UNL     1      -2.183   0.443  -1.555  1.00  0.00     0.122 HD
ENDBRANCH   1   3
BRANCH   1   6
ATOM      6  C   UNL     1      -0.072  -1.137  -0.564  1.00  0.00     0.054 C 
BRANCH   6   7
ATOM      7  C   UNL     1       1.207  -0.419  -0.193  1.00  0.00    -0.046 A 
ATOM      8  C   UNL     1       1.999  -0.880   0.868  1.00  0.00     0.004 A 
ATOM      9  C   UNL     1       1.611   0.725  -0.893  1.00  0.00     0.004 A 
ATOM     10  C   UNL     1       3.177  -0.214   1.214  1.00  0.00     0.000 A 
ATOM     11  C   UNL     1       2.788   1.390  -0.545  1.00  0.00     0.000 A 
ATOM     12  C   UNL     1       3.572   0.920   0.507  1.00  0.00     0.000 A 
ENDBRANCH   6   7
ENDBRANCH   1   6
TORSDOF 3
