REMARK SMILES CC(=O)OC(C)C[N+](C)(C)C
REMARK SMILES IDX 6 1 5 2 7 3 8 4 9 5 10 6 11 7 4 8 2 9 3 10 1 11
REMARK H PARENT
ROOT
ATOM      1  C   UNL     1       1.213  -2.499   0.208  1.00  0.00     0.059 C 
ATOM      2  C   UNL     1       0.698  -1.061   0.272  1.00  0.00     0.228 C 
ENDROOT
BRANCH   2   3
ATOM      3  C   UNL     1      -0.787  -1.023  -0.148  1.00  0.00     0.308 C 
BRANCH   3   4
ATOM      4  N   UNL     1      -1.520   0.329   0.065  1.00  0.00    -0.328 N 
ATOM      5  C   UNL     1      -3.007   0.095  -0.228  1.00  0.00     0.334 C 
ATOM      6  C   UNL     1      -1.389   0.827   1.501  1.00  0.00     0.334 C 
ATOM      7  C   UNL     1      -1.020   1.403  -0.892  1.00  0.00     0.334 C 
ENDBRANCH   3   4
ENDBRANCH   2   3
BRANCH   2   8
ATOM      8  O   UNL     1       1.510  -0.303  -0.648  1.00  0.00    -0.457 OA
BRANCH   8   9
ATOM      9  C   UNL     1       2.347   0.619  -0.091  1.00  0.00     0.303 C 
ATOM     10  O   UNL     1       2.290   0.991   1.071  1.00  0.00    -0.253 OA
ATOM     11  C   UNL     1       3.293   1.155  -1.120  1.00  0.00     0.139 C 
ENDBRANCH   8   9
ENDBRANCH   2   8
TORSDOF 4
