REMARK SMILES C=C(C)CC1(CC)C(=O)NC(=S)NC1=O
REMARK SMILES IDX 5 1 8 2 9 3 10 4 11 5 12 6 13 7 14 8 15 9 6 12 7 13 4 14
REMARK SMILES IDX 2 15 1 16 3 17
REMARK H PARENT 10 10 13 11
ROOT
ATOM      1  C   UNL     1      -0.478   0.087   0.137  1.00  0.00     0.132 C 
ATOM      2  C   UNL     1      -0.649  -0.263  -1.336  1.00  0.00     0.242 C 
ATOM      3  O   UNL     1      -0.209   0.410  -2.266  1.00  0.00    -0.273 OA
ATOM      4  N   UNL     1      -1.310  -1.435  -1.602  1.00  0.00    -0.302 N 
ATOM      5  C   UNL     1      -2.191  -2.034  -0.758  1.00  0.00     0.179 C 
ATOM      6  S   UNL     1      -3.099  -3.338  -1.242  1.00  0.00    -0.040 S 
ATOM      7  N   UNL     1      -2.322  -1.505   0.487  1.00  0.00    -0.302 N 
ATOM      8  C   UNL     1      -1.674  -0.389   0.954  1.00  0.00     0.242 C 
ATOM      9  O   UNL     1      -2.017   0.114   2.021  1.00  0.00    -0.273 OA
ATOM     10  H   UNL     1      -1.353  -1.700  -2.579  1.00  0.00     0.172 HD
ATOM     11  H   UNL     1      -3.064  -1.863   1.076  1.00  0.00     0.172 HD
ENDROOT
BRANCH   1  12
ATOM     12  C   UNL     1      -0.268   1.608   0.325  1.00  0.00     0.024 C 
ATOM     13  C   UNL     1      -1.459   2.470  -0.094  1.00  0.00     0.005 C 
ENDBRANCH   1  12
BRANCH   1  14
ATOM     14  C   UNL     1       0.724  -0.737   0.700  1.00  0.00     0.057 C 
BRANCH  14  15
ATOM     15  C   UNL     1       2.113  -0.393   0.197  1.00  0.00    -0.079 C 
ATOM     16  C   UNL     1       2.621  -0.952  -0.914  1.00  0.00     0.007 C 
ATOM     17  C   UNL     1       2.936   0.539   1.044  1.00  0.00     0.039 C 
ENDBRANCH  14  15
ENDBRANCH   1  14
TORSDOF 3
