REMARK SMILES CN(C)c1ccc2nc3ccc(N(C)C)cc3[s+]c2c1
REMARK SMILES IDX 4 1 20 2 19 3 18 4 17 5 16 6 12 7 11 8 10 9 9 10 8 11 7 12
REMARK SMILES IDX 6 13 5 14 2 15 1 16 3 17 13 18 14 19 15 20
REMARK H PARENT
ROOT
ATOM      1  C   UNL     1      -3.839   0.187   0.090  1.00  0.00     0.042 A 
ATOM      2  C   UNL     1      -2.690  -0.238   0.773  1.00  0.00     0.100 A 
ATOM      3  C   UNL     1      -1.388   0.040   0.306  1.00  0.00     0.259 A 
ATOM      4  S   UNL     1      -0.009  -0.575   1.273  1.00  0.00     0.232 S 
ATOM      5  C   UNL     1       1.388   0.006   0.309  1.00  0.00     0.259 A 
ATOM      6  C   UNL     1       2.681  -0.304   0.780  1.00  0.00     0.100 A 
ATOM      7  C   UNL     1       3.842   0.091   0.099  1.00  0.00     0.042 A 
ATOM      8  C   UNL     1       3.626   0.839  -1.066  1.00  0.00     0.028 A 
ATOM      9  C   UNL     1       2.335   1.147  -1.532  1.00  0.00     0.036 A 
ATOM     10  C   UNL     1       1.194   0.743  -0.872  1.00  0.00     0.129 A 
ATOM     11  N   UNL     1       0.015   1.098  -1.419  1.00  0.00    -0.237 NA
ATOM     12  C   UNL     1      -1.173   0.773  -0.874  1.00  0.00     0.129 A 
ATOM     13  C   UNL     1      -2.303   1.205  -1.538  1.00  0.00     0.036 A 
ATOM     14  C   UNL     1      -3.602   0.929  -1.074  1.00  0.00     0.028 A 
ENDROOT
BRANCH   1  15
ATOM     15  N   UNL     1      -5.129  -0.074   0.560  1.00  0.00    -0.377 N 
ATOM     16  C   UNL     1      -6.267   0.125  -0.338  1.00  0.00     0.143 C 
ATOM     17  C   UNL     1      -5.319  -1.076   1.607  1.00  0.00     0.143 C 
ENDBRANCH   1  15
BRANCH   7  18
ATOM     18  N   UNL     1       5.125  -0.201   0.572  1.00  0.00    -0.377 N 
ATOM     19  C   UNL     1       6.269  -0.031  -0.323  1.00  0.00     0.143 C 
ATOM     20  C   UNL     1       5.287  -1.208   1.620  1.00  0.00     0.143 C 
ENDBRANCH   7  18
TORSDOF 2
