REMARK SMILES CN(C)CCN(Cc1cccs1)c1ccccc1
REMARK SMILES IDX 5 1 4 2 2 3 1 4 3 5 6 6 7 7 8 8 9 9 12 10 10 11 11 12 13 13
REMARK SMILES IDX 14 14 18 15 15 16 17 17 16 18
REMARK H PARENT
ROOT
ATOM      1  C   UNL     1      -0.714  -0.526  -0.616  1.00  0.00     0.132 C 
ENDROOT
BRANCH   1   2
ATOM      2  C   UNL     1      -1.940  -0.963   0.220  1.00  0.00     0.105 C 
BRANCH   2   3
ATOM      3  N   UNL     1      -3.057  -1.507  -0.583  1.00  0.00    -0.308 NA
ATOM      4  C   UNL     1      -4.051  -2.121   0.302  1.00  0.00     0.105 C 
ATOM      5  C   UNL     1      -3.697  -0.468  -1.393  1.00  0.00     0.105 C 
ENDBRANCH   2   3
ENDBRANCH   1   2
BRANCH   1   6
ATOM      6  N   UNL     1       0.405  -0.117   0.251  1.00  0.00    -0.365 N 
BRANCH   6   7
ATOM      7  C   UNL     1       1.365  -1.182   0.594  1.00  0.00     0.163 C 
BRANCH   7   8
ATOM      8  C   UNL     1       2.592  -1.274  -0.278  1.00  0.00     0.024 A 
ATOM      9  C   UNL     1       2.929  -0.541  -1.400  1.00  0.00     0.017 A 
ATOM     10  S   UNL     1       3.804  -2.432   0.094  1.00  0.00    -0.147 S 
ATOM     11  C   UNL     1       4.183  -0.930  -1.952  1.00  0.00     0.012 A 
ATOM     12  C   UNL     1       4.765  -1.950  -1.235  1.00  0.00     0.065 A 
ENDBRANCH   7   8
ENDBRANCH   6   7
BRANCH   6  13
ATOM     13  C   UNL     1       0.552   1.186   0.713  1.00  0.00     0.037 A 
ATOM     14  C   UNL     1       1.703   1.612   1.401  1.00  0.00     0.026 A 
ATOM     15  C   UNL     1      -0.436   2.169   0.519  1.00  0.00     0.026 A 
ATOM     16  C   UNL     1       1.859   2.924   1.869  1.00  0.00     0.002 A 
ATOM     17  C   UNL     1      -0.292   3.484   0.984  1.00  0.00     0.002 A 
ATOM     18  C   UNL     1       0.858   3.862   1.662  1.00  0.00     0.000 A 
ENDBRANCH   6  13
ENDBRANCH   1   6
TORSDOF 6
