REMARK SMILES COP(=O)(OC)C(O)C(Cl)(Cl)Cl
REMARK SMILES IDX 3 1 4 2 2 3 1 4 5 5 6 6 7 7 8 8 9 10 10 11 11 12 12 13
REMARK H PARENT 8 9
ROOT
ATOM      1  P   UNL     1       0.282   0.320   0.806  1.00  0.00     0.362 P 
ATOM      2  O   UNL     1      -0.100   1.207   1.953  1.00  0.00    -0.257 OA
ENDROOT
BRANCH   1   3
ATOM      3  O   UNL     1       0.836  -1.118   1.283  1.00  0.00    -0.310 OA
ATOM      4  C   UNL     1       1.438  -2.009   0.367  1.00  0.00     0.206 C 
ENDBRANCH   1   3
BRANCH   1   5
ATOM      5  O   UNL     1       1.535   0.919  -0.028  1.00  0.00    -0.310 OA
ATOM      6  C   UNL     1       1.565   2.314  -0.250  1.00  0.00     0.206 C 
ENDBRANCH   1   5
BRANCH   1   7
ATOM      7  C   UNL     1      -1.014   0.066  -0.417  1.00  0.00     0.281 C 
BRANCH   7   8
ATOM      8  O   UNL     1      -0.514  -0.794  -1.477  1.00  0.00    -0.377 OA
ATOM      9  H   UNL     1      -1.242  -0.939  -2.111  1.00  0.00     0.212 HD
ENDBRANCH   7   8
BRANCH   7  10
ATOM     10  C   UNL     1      -2.341  -0.415   0.189  1.00  0.00     0.227 C 
ATOM     11  Cl  UNL     1      -3.492  -0.725  -1.190  1.00  0.00    -0.080 Cl
ATOM     12  Cl  UNL     1      -2.207  -1.950   1.086  1.00  0.00    -0.080 Cl
ATOM     13  Cl  UNL     1      -3.122   0.826   1.209  1.00  0.00    -0.080 Cl
ENDBRANCH   7  10
ENDBRANCH   1   7
TORSDOF 5
