REMARK SMILES Cc1cccc(C)c1OCC(C)N
REMARK SMILES IDX 10 1 11 2 12 3 13 4 9 7 8 8 2 9 6 10 3 11 5 12 4 13 1 14
REMARK SMILES IDX 7 15
REMARK H PARENT 13 5 13 6
ROOT
ATOM      1  C   UNL     1       1.165   0.321  -0.159  1.00  0.00     0.247 C 
ENDROOT
BRANCH   1   2
ATOM      2  C   UNL     1       2.573   0.029   0.402  1.00  0.00     0.085 C 
ATOM      3  C   UNL     1       3.647   0.501  -0.576  1.00  0.00     0.028 C 
BRANCH   2   4
ATOM      4  N   UNL     1       2.770  -1.404   0.675  1.00  0.00    -0.325 NA
ATOM      5  H   UNL     1       2.688  -1.939  -0.188  1.00  0.00     0.119 HD
ATOM      6  H   UNL     1       3.713  -1.561   1.027  1.00  0.00     0.119 HD
ENDBRANCH   2   4
ENDBRANCH   1   2
BRANCH   1   7
ATOM      7  O   UNL     1       0.193   0.162   0.888  1.00  0.00    -0.491 OA
BRANCH   7   8
ATOM      8  C   UNL     1      -1.072   0.086   0.360  1.00  0.00     0.125 A 
ATOM      9  C   UNL     1      -1.619  -1.179   0.086  1.00  0.00    -0.009 A 
ATOM     10  C   UNL     1      -1.822   1.259   0.173  1.00  0.00    -0.009 A 
ATOM     11  C   UNL     1      -2.902  -1.252  -0.469  1.00  0.00     0.007 A 
ATOM     12  C   UNL     1      -3.102   1.156  -0.386  1.00  0.00     0.007 A 
ATOM     13  C   UNL     1      -3.637  -0.092  -0.709  1.00  0.00     0.001 A 
ATOM     14  C   UNL     1      -0.842  -2.438   0.345  1.00  0.00     0.048 C 
ATOM     15  C   UNL     1      -1.275   2.614   0.520  1.00  0.00     0.048 C 
ENDBRANCH   7   8
ENDBRANCH   1   7
TORSDOF 4
