REMARK SMILES CCCCCOc1ccc(-c2cc(-c3ccc(C(=O)N[C@H]4C[C@@H](O)[C@@H](O)NC(=O)[C@@H]5[C@@H](O)[C@@H](C)CN5C(=O)[C@H]([C@H](O)CC(N)=O)NC(=O)C([C@H](O)[C@@H](O)c5ccc(O)c(OS(=O)(=O)O)c5)NC(=O)[C@@H]5C[C@@H](O)CN5C(=O)C([C@@H](C)O)NC4=O)cc3)no2)cc1
REMARK SMILES IDX 75 1 76 2 77 3 81 4 82 5 83 6 21 8 20 9 18 10 19 11 17 13
REMARK SMILES IDX 14 14 15 15 85 16 16 17 84 18 13 19 11 20 12 21 87 22 86 23
REMARK SMILES IDX 10 24 7 25 8 26 89 27 9 28 88 29 6 30 5 31 4 32 3 33 2 34
REMARK SMILES IDX 1 35 22 36 78 38 79 39 80 40 74 42 73 43 69 44 71 45 70 46
REMARK SMILES IDX 67 47 66 48 68 49 49 51 47 52 46 53 48 54 39 56 37 57 38 58
REMARK SMILES IDX 36 59 35 60 30 61 33 62 31 63 34 64 28 65 27 66 29 67 25 69
REMARK SMILES IDX 23 70 24 72 26 74 32 76 40 78 41 79 42 81 43 82 44 83 45 84
REMARK SMILES IDX 50 87 51 88 52 90 53 91 54 93 65 94 55 95 59 96 56 97 57 98
REMARK SMILES IDX 60 99 61 100 62 101 63 102 64 103 58 105 72 107
REMARK H PARENT 81 7 20 12 80 41 66 50 46 55 27 68 24 73 26 75 32 77 41 80
REMARK H PARENT 44 85 44 86 51 89 53 92 64 104 58 106 72 108
REMARK Flexibility Score:  553.900
ROOT
ATOM      1  C   UNL     1      -1.274  -0.567  -3.167  1.00  0.00     0.248 C 
ATOM      2  O   UNL     1      -1.334  -0.674  -4.400  1.00  0.00    -0.272 OA
ENDROOT
BRANCH   1   3
ATOM      3  C   UNL     1      -0.167   0.346  -2.566  1.00  0.00     0.200 C 
BRANCH   3   4
ATOM      4  N   UNL     1       0.340   0.203  -1.193  1.00  0.00    -0.340 N 
ATOM      5  C   UNL     1       0.877  -0.981  -0.739  1.00  0.00     0.243 C 
ATOM      6  O   UNL     1       0.824  -2.021  -1.400  1.00  0.00    -0.273 OA
ATOM      7  H   UNL     1       0.862   1.027  -0.891  1.00  0.00     0.164 HD
BRANCH   5   8
ATOM      8  C   UNL     1       1.638  -0.915   0.608  1.00  0.00     0.174 C 
BRANCH   8   9
ATOM      9  N   UNL     1       3.062  -0.841   0.277  1.00  0.00    -0.340 N 
ATOM     10  C   UNL     1       3.657   0.292  -0.230  1.00  0.00     0.251 C 
ATOM     11  O   UNL     1       3.095   1.372  -0.350  1.00  0.00    -0.269 OA
ATOM     12  H   UNL     1       3.570  -1.716   0.264  1.00  0.00     0.164 HD
BRANCH  10  13
ATOM     13  C   UNL     1       5.077   0.137  -0.615  1.00  0.00     0.039 A 
ATOM     14  C   UNL     1       7.790  -0.157  -1.262  1.00  0.00     0.004 A 
ATOM     15  C   UNL     1       7.357   0.942  -0.506  1.00  0.00     0.011 A 
ATOM     16  C   UNL     1       6.842  -1.091  -1.713  1.00  0.00     0.011 A 
ATOM     17  C   UNL     1       6.002   1.094  -0.191  1.00  0.00     0.014 A 
ATOM     18  C   UNL     1       5.492  -0.948  -1.391  1.00  0.00     0.014 A 
BRANCH  14  19
ATOM     19  C   UNL     1       9.203  -0.368  -1.546  1.00  0.00     0.114 A 
ATOM     20  C   UNL     1      11.397  -0.653  -1.362  1.00  0.00     0.167 A 
ATOM     21  C   UNL     1      10.307  -0.166  -0.677  1.00  0.00     0.083 A 
ATOM     22  O   UNL     1      10.983  -1.042  -2.599  1.00  0.00    -0.356 OA
ATOM     23  N   UNL     1       9.619  -0.882  -2.714  1.00  0.00    -0.079 NA
BRANCH  20  24
ATOM     24  C   UNL     1      12.804  -0.883  -1.043  1.00  0.00     0.020 A 
ATOM     25  C   UNL     1      15.471  -1.455  -0.380  1.00  0.00     0.119 A 
ATOM     26  C   UNL     1      15.031  -1.635  -1.689  1.00  0.00     0.047 A 
ATOM     27  C   UNL     1      14.598  -0.998   0.599  1.00  0.00     0.047 A 
ATOM     28  C   UNL     1      13.705  -1.343  -2.016  1.00  0.00     0.016 A 
ATOM     29  C   UNL     1      13.272  -0.702   0.269  1.00  0.00     0.016 A 
BRANCH  25  30
ATOM     30  O   UNL     1      16.733  -1.805  -0.004  1.00  0.00    -0.494 OA
BRANCH  30  31
ATOM     31  C   UNL     1      17.723  -0.905  -0.520  1.00  0.00     0.229 C 
BRANCH  31  32
ATOM     32  C   UNL     1      18.460  -0.296   0.670  1.00  0.00     0.042 C 
BRANCH  32  33
ATOM     33  C   UNL     1      19.555   0.671   0.229  1.00  0.00     0.003 C 
BRANCH  33  34
ATOM     34  C   UNL     1      20.365   1.231   1.399  1.00  0.00    -0.003 C 
ATOM     35  C   UNL     1      19.551   2.108   2.337  1.00  0.00     0.004 C 
ENDBRANCH  33  34
ENDBRANCH  32  33
ENDBRANCH  31  32
ENDBRANCH  30  31
ENDBRANCH  25  30
ENDBRANCH  20  24
ENDBRANCH  14  19
ENDBRANCH  10  13
ENDBRANCH   8   9
BRANCH   8  36
ATOM     36  C   UNL     1       1.184   0.148   1.630  1.00  0.00     0.071 CG0
ATOM     37  G   UNL     1      -0.167  -0.190   2.283  1.00  0.00     0.000 G0
ENDBRANCH   8  36
ENDBRANCH   5   8
ENDBRANCH   3   4
BRANCH   3  38
ATOM     38  C   UNL     1      -0.596   1.819  -2.813  1.00  0.00     0.143 C 
ATOM     39  C   UNL     1      -1.635   2.342  -1.825  1.00  0.00     0.041 C 
BRANCH  38  40
ATOM     40  O   UNL     1       0.553   2.677  -2.694  1.00  0.00    -0.391 OA
ATOM     41  H   UNL     1       1.166   2.442  -3.410  1.00  0.00     0.211 HD
ENDBRANCH  38  40
ENDBRANCH   3  38
ENDBRANCH   1   3
BRANCH   1  42
ATOM     42  N   UNL     1      -2.242  -1.152  -2.392  1.00  0.00    -0.326 N 
ATOM     43  C   UNL     1      -2.442  -1.100  -0.961  1.00  0.00     0.152 C 
ATOM     44  C   UNL     1      -3.412  -1.810  -2.978  1.00  0.00     0.177 C 
ATOM     45  C   UNL     1      -3.002  -2.480  -0.659  1.00  0.00     0.136 C 
ATOM     46  C   UNL     1      -3.739  -2.898  -1.938  1.00  0.00     0.069 C 
BRANCH  44  47
ATOM     47  C   UNL     1      -4.515  -0.718  -3.149  1.00  0.00     0.243 C 
ATOM     48  N   UNL     1      -5.828  -1.146  -3.105  1.00  0.00    -0.340 N 
ATOM     49  O   UNL     1      -4.260   0.475  -3.322  1.00  0.00    -0.273 OA
ATOM     50  H   UNL     1      -6.021  -2.114  -2.866  1.00  0.00     0.164 HD
BRANCH  48  51
ATOM     51  C   UNL     1      -6.857  -0.207  -2.633  1.00  0.00     0.203 C 
BRANCH  51  52
ATOM     52  C   UNL     1      -6.685  -0.050  -1.093  1.00  0.00     0.246 C 
ATOM     53  N   UNL     1      -7.589   0.749  -0.419  1.00  0.00    -0.340 N 
ATOM     54  O   UNL     1      -5.742  -0.568  -0.491  1.00  0.00    -0.273 OA
ATOM     55  H   UNL     1      -8.360   1.069  -1.009  1.00  0.00     0.164 HD
BRANCH  53  56
ATOM     56  C   UNL     1      -7.104   1.844   0.454  1.00  0.00     0.201 C 
BRANCH  56  57
ATOM     57  C   UNL     1      -5.876   1.752   1.409  1.00  0.00     0.248 C 
ATOM     58  O   UNL     1      -5.169   2.765   1.532  1.00  0.00    -0.272 OA
BRANCH  57  59
ATOM     59  N   UNL     1      -5.680   0.695   2.264  1.00  0.00    -0.326 N 
ATOM     60  C   UNL     1      -6.544  -0.447   2.494  1.00  0.00     0.126 C 
ATOM     61  C   UNL     1      -4.591   0.752   3.256  1.00  0.00     0.203 C 
ATOM     62  C   UNL     1      -5.694  -1.396   3.330  1.00  0.00     0.037 C 
ATOM     63  C   UNL     1      -4.860  -0.438   4.194  1.00  0.00     0.151 C 
ATOM     64  C   UNL     1      -6.525  -2.408   4.102  1.00  0.00     0.012 C 
BRANCH  61  65
ATOM     65  C   UNL     1      -3.179   0.670   2.642  1.00  0.00     0.247 C 
ATOM     66  N   UNL     1      -2.135   0.840   3.533  1.00  0.00    -0.327 N 
ATOM     67  O   UNL     1      -2.971   0.518   1.441  1.00  0.00    -0.273 OA
ATOM     68  H   UNL     1      -2.356   1.276   4.418  1.00  0.00     0.166 HD
BRANCH  66  69
ATOM     69  C   UNL     1      -0.772   1.008   3.081  1.00  0.00     0.240 C 
BRANCH  69  70
ATOM     70  C   UNL     1      -0.167  -0.190   2.283  1.00  0.00     0.166 CG0
ATOM     71  G   UNL     1       1.184   0.148   1.630  1.00  0.00     0.000 G0
BRANCH  70  72
ATOM     72  O   UNL     1       0.006  -1.334   3.134  1.00  0.00    -0.388 OA
ATOM     73  H   UNL     1       0.542  -1.066   3.902  1.00  0.00     0.211 HD
ENDBRANCH  70  72
ENDBRANCH  69  70
BRANCH  69  74
ATOM     74  O   UNL     1      -0.747   2.220   2.361  1.00  0.00    -0.371 OA
ATOM     75  H   UNL     1      -1.380   2.100   1.624  1.00  0.00     0.213 HD
ENDBRANCH  69  74
ENDBRANCH  66  69
ENDBRANCH  61  65
BRANCH  63  76
ATOM     76  O   UNL     1      -5.578  -0.006   5.355  1.00  0.00    -0.390 OA
ATOM     77  H   UNL     1      -6.376   0.468   5.064  1.00  0.00     0.211 HD
ENDBRANCH  63  76
ENDBRANCH  57  59
ENDBRANCH  56  57
BRANCH  56  78
ATOM     78  C   UNL     1      -8.265   2.370   1.358  1.00  0.00     0.155 C 
BRANCH  78  79
ATOM     79  O   UNL     1      -9.231   1.354   1.643  1.00  0.00    -0.390 OA
ATOM     80  H   UNL     1      -8.991   0.570   1.104  1.00  0.00     0.211 HD
ENDBRANCH  78  79
BRANCH  78  81
ATOM     81  C   UNL     1      -8.978   3.620   0.838  1.00  0.00     0.134 C 
BRANCH  81  82
ATOM     82  C   UNL     1      -9.663   3.446  -0.493  1.00  0.00     0.220 C 
ATOM     83  N   UNL     1     -10.296   4.566  -0.949  1.00  0.00    -0.370 N 
ATOM     84  O   UNL     1      -9.680   2.412  -1.153  1.00  0.00    -0.275 OA
ATOM     85  H   UNL     1     -10.848   4.482  -1.796  1.00  0.00     0.159 HD
ATOM     86  H   UNL     1     -10.583   5.291  -0.301  1.00  0.00     0.159 HD
ENDBRANCH  81  82
ENDBRANCH  78  81
ENDBRANCH  56  78
ENDBRANCH  53  56
ENDBRANCH  51  52
BRANCH  51  87
ATOM     87  C   UNL     1      -8.237  -0.647  -3.148  1.00  0.00     0.179 C 
BRANCH  87  88
ATOM     88  O   UNL     1      -9.170   0.441  -3.166  1.00  0.00    -0.387 OA
ATOM     89  H   UNL     1      -8.815   1.128  -3.764  1.00  0.00     0.211 HD
ENDBRANCH  87  88
BRANCH  87  90
ATOM     90  C   UNL     1      -8.845  -1.936  -2.526  1.00  0.00     0.176 C 
BRANCH  90  91
ATOM     91  O   UNL     1      -7.844  -2.950  -2.394  1.00  0.00    -0.386 OA
ATOM     92  H   UNL     1      -8.305  -3.750  -2.076  1.00  0.00     0.211 HD
ENDBRANCH  90  91
BRANCH  90  93
ATOM     93  C   UNL     1      -9.623  -1.748  -1.234  1.00  0.00    -0.013 A 
ATOM     94  C   UNL     1     -10.880  -1.118  -1.290  1.00  0.00     0.059 A 
ATOM     95  C   UNL     1      -9.156  -2.195   0.012  1.00  0.00     0.010 A 
ATOM     96  C   UNL     1     -11.617  -0.879  -0.132  1.00  0.00     0.186 A 
ATOM     97  C   UNL     1      -9.923  -2.009   1.166  1.00  0.00     0.050 A 
ATOM     98  C   UNL     1     -11.147  -1.349   1.089  1.00  0.00     0.159 A 
BRANCH  96  99
ATOM     99  O   UNL     1     -12.842  -0.277  -0.201  1.00  0.00    -0.358 OA
BRANCH  99 100
ATOM    100  S   UNL     1     -12.952   1.326  -0.509  1.00  0.00     0.446 S 
ATOM    101  O   UNL     1     -14.326   1.609  -0.861  1.00  0.00    -0.158 OA
ATOM    102  O   UNL     1     -12.312   2.050   0.566  1.00  0.00    -0.158 OA
BRANCH 100 103
ATOM    103  O   UNL     1     -12.069   1.575  -1.834  1.00  0.00    -0.254 OA
ATOM    104  H   UNL     1     -11.118   1.706  -1.578  1.00  0.00     0.237 HD
ENDBRANCH 100 103
ENDBRANCH  99 100
ENDBRANCH  96  99
BRANCH  98 105
ATOM    105  O   UNL     1     -11.847  -1.189   2.248  1.00  0.00    -0.504 OA
ATOM    106  H   UNL     1     -12.638  -0.657   2.053  1.00  0.00     0.293 HD
ENDBRANCH  98 105
ENDBRANCH  90  93
ENDBRANCH  87  90
ENDBRANCH  51  87
ENDBRANCH  48  51
ENDBRANCH  44  47
BRANCH  45 107
ATOM    107  O   UNL     1      -1.935  -3.412  -0.425  1.00  0.00    -0.391 OA
ATOM    108  H   UNL     1      -1.218  -3.196  -1.055  1.00  0.00     0.211 HD
ENDBRANCH  45 107
ENDBRANCH   1  42
TORSDOF 28
