REMARK SMILES C[C@H]1C[C@@H](OC(=O)C(OC(=O)c2cccnc2)c2ccccc2)CC(C)(C)C1
REMARK SMILES IDX 6 1 7 2 5 3 4 4 2 5 3 6 28 7 25 8 24 9 1 10 26 11 27 12 8 13
REMARK SMILES IDX 9 14 10 15 11 16 12 17 17 18 13 19 16 20 14 21 15 22 18 23
REMARK SMILES IDX 19 24 23 25 20 26 22 27 21 28
REMARK H PARENT
ROOT
ATOM      1  C   UNL     1       0.730   0.038   0.301  1.00  0.00     0.352 C 
ATOM      2  O   UNL     1       0.665  -0.394   1.447  1.00  0.00    -0.247 OA
ENDROOT
BRANCH   1   3
ATOM      3  O   UNL     1      -0.323   0.552  -0.403  1.00  0.00    -0.459 OA
BRANCH   3   4
ATOM      4  C   UNL     1      -1.595   0.556   0.272  1.00  0.00     0.177 C 
ATOM      5  C   UNL     1      -3.766  -0.848   0.283  1.00  0.00    -0.010 C 
ATOM      6  C   UNL     1      -2.230  -0.838   0.180  1.00  0.00     0.048 C 
ATOM      7  C   UNL     1      -4.312   0.431   0.936  1.00  0.00     0.010 C 
ATOM      8  C   UNL     1      -3.841   1.763   0.293  1.00  0.00    -0.032 C 
ATOM      9  C   UNL     1      -2.475   1.604  -0.410  1.00  0.00     0.051 C 
ATOM     10  C   UNL     1      -4.410  -1.143  -1.073  1.00  0.00     0.008 C 
ATOM     11  C   UNL     1      -4.880   2.282  -0.719  1.00  0.00     0.011 C 
ATOM     12  C   UNL     1      -3.724   2.825   1.408  1.00  0.00     0.011 C 
ENDBRANCH   3   4
ENDBRANCH   1   3
BRANCH   1  13
ATOM     13  C   UNL     1       2.003   0.055  -0.562  1.00  0.00     0.316 C 
BRANCH  13  14
ATOM     14  O   UNL     1       3.185  -0.209   0.207  1.00  0.00    -0.442 OA
BRANCH  14  15
ATOM     15  C   UNL     1       3.543   0.801   1.034  1.00  0.00     0.340 C 
ATOM     16  O   UNL     1       2.991   1.887   1.110  1.00  0.00    -0.246 OA
BRANCH  15  17
ATOM     17  C   UNL     1       4.720   0.418   1.842  1.00  0.00     0.078 A 
ATOM     18  C   UNL     1       5.202   1.323   2.779  1.00  0.00     0.126 A 
ATOM     19  C   UNL     1       5.382  -0.806   1.716  1.00  0.00     0.019 A 
ATOM     20  N   UNL     1       6.277   1.089   3.574  1.00  0.00    -0.264 NA
ATOM     21  C   UNL     1       6.487  -1.073   2.523  1.00  0.00     0.021 A 
ATOM     22  C   UNL     1       6.893  -0.104   3.428  1.00  0.00     0.111 A 
ENDBRANCH  15  17
ENDBRANCH  14  15
ENDBRANCH  13  14
BRANCH  13  23
ATOM     23  C   UNL     1       1.935  -1.006  -1.648  1.00  0.00     0.004 A 
ATOM     24  C   UNL     1       1.851  -0.636  -2.999  1.00  0.00     0.008 A 
ATOM     25  C   UNL     1       1.937  -2.373  -1.320  1.00  0.00     0.008 A 
ATOM     26  C   UNL     1       1.773  -1.609  -3.997  1.00  0.00     0.000 A 
ATOM     27  C   UNL     1       1.859  -3.343  -2.321  1.00  0.00     0.000 A 
ATOM     28  C   UNL     1       1.777  -2.960  -3.658  1.00  0.00     0.000 A 
ENDBRANCH  13  23
ENDBRANCH   1  13
TORSDOF 7
