REMARK SMILES COc1ccc(OC)c(C(O)CNC(=O)CN)c1
REMARK SMILES IDX 12 1 10 2 9 3 3 4 18 5 4 6 5 7 6 8 2 9 1 10 7 11 8 12 11 13
REMARK SMILES IDX 13 15 14 16 15 17 16 19 17 20
REMARK H PARENT 11 14 13 18 17 21 17 22
ROOT
ATOM      1  C   UNL     1       1.555  -1.775  -0.567  1.00  0.00     0.152 C 
ENDROOT
BRANCH   1   2
ATOM      2  C   UNL     1       0.668  -1.925   0.686  1.00  0.00     0.167 C 
BRANCH   2   3
ATOM      3  C   UNL     1      -0.471  -0.916   0.728  1.00  0.00     0.028 A 
ATOM      4  C   UNL     1      -1.383   1.129   1.714  1.00  0.00     0.119 A 
ATOM      5  C   UNL     1      -0.392   0.148   1.647  1.00  0.00     0.056 A 
ATOM      6  C   UNL     1      -2.473   1.048   0.854  1.00  0.00     0.050 A 
ATOM      7  C   UNL     1      -2.572  -0.005  -0.064  1.00  0.00     0.050 A 
ATOM      8  C   UNL     1      -1.579  -0.986  -0.136  1.00  0.00     0.124 A 
BRANCH   4   9
ATOM      9  O   UNL     1      -1.164   2.100   2.651  1.00  0.00    -0.497 OA
ATOM     10  C   UNL     1      -2.160   3.107   2.780  1.00  0.00     0.278 C 
ENDBRANCH   4   9
BRANCH   8  11
ATOM     11  O   UNL     1      -1.603  -2.058  -0.991  1.00  0.00    -0.496 OA
ATOM     12  C   UNL     1      -2.642  -2.095  -1.963  1.00  0.00     0.278 C 
ENDBRANCH   8  11
ENDBRANCH   2   3
BRANCH   2  13
ATOM     13  O   UNL     1       0.163  -3.261   0.767  1.00  0.00    -0.386 OA
ATOM     14  H   UNL     1      -0.616  -3.292   0.180  1.00  0.00     0.211 HD
ENDBRANCH   2  13
ENDBRANCH   1   2
BRANCH   1  15
ATOM     15  N   UNL     1       2.214  -0.484  -0.664  1.00  0.00    -0.352 N 
ATOM     16  C   UNL     1       3.293  -0.287  -1.498  1.00  0.00     0.233 C 
ATOM     17  O   UNL     1       3.893  -1.193  -2.068  1.00  0.00    -0.274 OA
ATOM     18  H   UNL     1       1.665   0.362  -0.518  1.00  0.00     0.163 HD
BRANCH  16  19
ATOM     19  C   UNL     1       3.683   1.187  -1.669  1.00  0.00     0.178 C 
BRANCH  19  20
ATOM     20  N   UNL     1       2.898   2.067  -0.775  1.00  0.00    -0.322 NA
ATOM     21  H   UNL     1       3.184   3.031  -0.948  1.00  0.00     0.119 HD
ATOM     22  H   UNL     1       3.184   1.869   0.187  1.00  0.00     0.119 HD
ENDBRANCH  19  20
ENDBRANCH  16  19
ENDBRANCH   1  15
TORSDOF 8
