REMARK SMILES CCCCN1C[C@H](O)[C@@H](O)[C@H](O)[C@H]1CO
REMARK SMILES IDX 5 1 6 2 7 3 9 4 11 5 13 6 4 7 3 8 2 9 1 10 14 11 15 12 8 14
REMARK SMILES IDX 12 16 10 18
REMARK H PARENT 15 13 8 15 12 17 10 19
ROOT
ATOM      1  N   UNL     1      -0.058  -0.983  -0.631  1.00  0.00    -0.293 NA
ATOM      2  C   UNL     1      -0.385  -0.148  -1.785  1.00  0.00     0.119 C 
ATOM      3  C   UNL     1      -1.274   1.091  -1.555  1.00  0.00     0.159 C 
ATOM      4  C   UNL     1      -2.010   1.081  -0.216  1.00  0.00     0.174 C 
ATOM      5  C   UNL     1      -2.377  -0.343   0.189  1.00  0.00     0.165 C 
ATOM      6  C   UNL     1      -1.074  -1.134   0.434  1.00  0.00     0.113 C 
ENDROOT
BRANCH   1   7
ATOM      7  C   UNL     1       1.328  -0.961  -0.172  1.00  0.00     0.085 C 
BRANCH   7   8
ATOM      8  C   UNL     1       1.798   0.381   0.398  1.00  0.00     0.015 C 
BRANCH   8   9
ATOM      9  C   UNL     1       3.208   0.268   0.982  1.00  0.00    -0.002 C 
ATOM     10  C   UNL     1       3.689   1.599   1.536  1.00  0.00     0.004 C 
ENDBRANCH   8   9
ENDBRANCH   7   8
ENDBRANCH   1   7
BRANCH   6  11
ATOM     11  C   UNL     1      -1.396  -2.635   0.612  1.00  0.00     0.178 C 
BRANCH  11  12
ATOM     12  O   UNL     1      -1.667  -3.240  -0.654  1.00  0.00    -0.395 OA
ATOM     13  H   UNL     1      -0.944  -2.925  -1.232  1.00  0.00     0.210 HD
ENDBRANCH  11  12
ENDBRANCH   6  11
BRANCH   3  14
ATOM     14  O   UNL     1      -0.532   2.312  -1.667  1.00  0.00    -0.389 OA
ATOM     15  H   UNL     1       0.169   2.299  -0.993  1.00  0.00     0.211 HD
ENDBRANCH   3  14
BRANCH   5  16
ATOM     16  O   UNL     1      -3.145  -0.277   1.400  1.00  0.00    -0.389 OA
ATOM     17  H   UNL     1      -3.812   0.421   1.234  1.00  0.00     0.211 HD
ENDBRANCH   5  16
BRANCH   4  18
ATOM     18  O   UNL     1      -3.205   1.877  -0.301  1.00  0.00    -0.388 OA
ATOM     19  H   UNL     1      -2.933   2.727  -0.701  1.00  0.00     0.211 HD
ENDBRANCH   4  18
TORSDOF 8
