REMARK SMILES Nc1cc(N2CCCCC2)nc(N)[n+]1[O-]
REMARK SMILES IDX 2 1 3 2 4 3 11 4 12 5 14 6 15 7 1 8 5 11 6 12 10 13 7 14
REMARK SMILES IDX 9 15 8 16 13 17
REMARK H PARENT 1 9 1 10 13 18 13 19
ROOT
ATOM      1  C   UNL     1      -2.690  -1.073  -0.744  1.00  0.00     0.197 A 
ATOM      2  C   UNL     1      -1.305  -1.147  -0.644  1.00  0.00     0.132 A 
ATOM      3  C   UNL     1      -0.613  -0.161   0.048  1.00  0.00     0.195 A 
ATOM      4  N   UNL     1      -1.275   0.857   0.639  1.00  0.00    -0.089 NA
ATOM      5  C   UNL     1      -2.622   0.966   0.522  1.00  0.00     0.346 A 
ATOM      6  N   UNL     1      -3.366  -0.002  -0.157  1.00  0.00    -0.245 N 
ATOM      7  O   UNL     1      -4.657   0.041  -0.200  1.00  0.00    -0.754 OA
ENDROOT
BRANCH   1   8
ATOM      8  N   UNL     1      -3.425  -2.058  -1.452  1.00  0.00    -0.335 N 
ATOM      9  H   UNL     1      -3.259  -2.995  -1.096  1.00  0.00     0.229 HD
ATOM     10  H   UNL     1      -4.415  -1.793  -1.353  1.00  0.00     0.229 HD
ENDBRANCH   1   8
BRANCH   3  11
ATOM     11  N   UNL     1       0.773  -0.228   0.186  1.00  0.00    -0.346 N 
ATOM     12  C   UNL     1       1.377   0.746   1.102  1.00  0.00     0.119 C 
ATOM     13  C   UNL     1       1.572  -0.670  -0.965  1.00  0.00     0.119 C 
ATOM     14  C   UNL     1       2.832   0.364   1.362  1.00  0.00     0.022 C 
ATOM     15  C   UNL     1       2.797   0.218  -1.176  1.00  0.00     0.022 C 
ATOM     16  C   UNL     1       3.659   0.325   0.078  1.00  0.00     0.004 C 
ENDBRANCH   3  11
BRANCH   5  17
ATOM     17  N   UNL     1      -3.267   2.046   1.134  1.00  0.00    -0.307 N 
ATOM     18  H   UNL     1      -4.261   1.839   1.227  1.00  0.00     0.232 HD
ATOM     19  H   UNL     1      -2.767   2.366   1.952  1.00  0.00     0.232 HD
ENDBRANCH   5  17
TORSDOF 3
