REMARK SMILES CCCOc1ccc(S(=O)(=O)N2CCN(CCO)CC2)cc1C1=NC2C(CCC)=CN(CC)C2C(=O)N1
REMARK SMILES IDX 9 1 10 2 11 3 8 4 5 5 6 6 22 7 7 8 21 9 4 10 3 11 2 12 1 13
REMARK SMILES IDX 23 14 24 15 37 16 25 17 35 18 34 19 26 20 36 21 31 22 30 23
REMARK SMILES IDX 27 25 28 26 29 27 32 28 33 29 12 30 13 31 20 32 14 33 19 34
REMARK SMILES IDX 15 35 16 36 17 37 18 38
REMARK H PARENT 37 24 18 39
ROOT
ATOM      1  S   UNL     1       3.040  -0.331  -2.097  1.00  0.00     0.243 S 
ATOM      2  O   UNL     1       2.363  -1.337  -2.885  1.00  0.00    -0.207 OA
ATOM      3  O   UNL     1       4.209   0.357  -2.605  1.00  0.00    -0.207 OA
ENDROOT
BRANCH   1   4
ATOM      4  C   UNL     1       1.833   0.886  -1.642  1.00  0.00     0.083 A 
ATOM      5  C   UNL     1      -0.090   2.794  -0.912  1.00  0.00     0.130 A 
ATOM      6  C   UNL     1       1.142   3.187  -1.458  1.00  0.00     0.048 A 
ATOM      7  C   UNL     1      -0.358   1.416  -0.734  1.00  0.00     0.060 A 
ATOM      8  C   UNL     1       2.101   2.240  -1.826  1.00  0.00     0.025 A 
ATOM      9  C   UNL     1       0.613   0.469  -1.108  1.00  0.00     0.037 A 
BRANCH   5  10
ATOM     10  O   UNL     1      -1.061   3.682  -0.529  1.00  0.00    -0.493 OA
BRANCH  10  11
ATOM     11  C   UNL     1      -0.935   5.072  -0.844  1.00  0.00     0.229 C 
BRANCH  11  12
ATOM     12  C   UNL     1      -1.335   5.345  -2.292  1.00  0.00     0.038 C 
ATOM     13  C   UNL     1      -1.258   6.824  -2.627  1.00  0.00     0.007 C 
ENDBRANCH  11  12
ENDBRANCH  10  11
ENDBRANCH   5  10
BRANCH   7  14
ATOM     14  C   UNL     1      -1.642   0.872  -0.170  1.00  0.00     0.139 C 
ATOM     15  N   UNL     1      -1.851  -0.413  -0.120  1.00  0.00    -0.257 NA
ATOM     16  N   UNL     1      -2.583   1.788   0.292  1.00  0.00    -0.308 N 
ATOM     17  C   UNL     1      -3.064  -0.720   0.640  1.00  0.00     0.167 C 
ATOM     18  C   UNL     1      -3.928   1.497   0.516  1.00  0.00     0.250 C 
ATOM     19  C   UNL     1      -4.246   0.093   0.089  1.00  0.00     0.201 C 
ATOM     20  C   UNL     1      -3.637  -2.109   0.578  1.00  0.00    -0.027 C 
ATOM     21  O   UNL     1      -4.726   2.350   0.885  1.00  0.00    -0.272 OA
ATOM     22  N   UNL     1      -5.391  -0.672   0.609  1.00  0.00    -0.364 N 
ATOM     23  C   UNL     1      -4.980  -2.001   0.633  1.00  0.00     0.083 C 
ATOM     24  H   UNL     1      -2.339   2.770   0.347  1.00  0.00     0.171 HD
BRANCH  20  25
ATOM     25  C   UNL     1      -2.809  -3.346   0.557  1.00  0.00     0.034 C 
BRANCH  25  26
ATOM     26  C   UNL     1      -1.914  -3.522   1.786  1.00  0.00     0.001 C 
ATOM     27  C   UNL     1      -2.697  -3.697   3.079  1.00  0.00     0.004 C 
ENDBRANCH  25  26
ENDBRANCH  20  25
BRANCH  22  28
ATOM     28  C   UNL     1      -6.749  -0.218   0.353  1.00  0.00     0.113 C 
ATOM     29  C   UNL     1      -7.152  -0.385  -1.104  1.00  0.00     0.027 C 
ENDBRANCH  22  28
ENDBRANCH   7  14
ENDBRANCH   1   4
BRANCH   1  30
ATOM     30  N   UNL     1       3.474  -1.019  -0.594  1.00  0.00    -0.195 NA
ATOM     31  C   UNL     1       4.143  -0.079   0.358  1.00  0.00     0.118 C 
ATOM     32  C   UNL     1       4.265  -2.281  -0.759  1.00  0.00     0.118 C 
ATOM     33  C   UNL     1       4.442  -0.783   1.697  1.00  0.00     0.101 C 
ATOM     34  C   UNL     1       4.590  -2.914   0.610  1.00  0.00     0.101 C 
ATOM     35  N   UNL     1       5.255  -2.015   1.584  1.00  0.00    -0.298 NA
BRANCH  35  36
ATOM     36  C   UNL     1       6.656  -1.701   1.225  1.00  0.00     0.112 C 
BRANCH  36  37
ATOM     37  C   UNL     1       7.590  -2.900   1.455  1.00  0.00     0.171 C 
BRANCH  37  38
ATOM     38  O   UNL     1       7.388  -3.423   2.766  1.00  0.00    -0.395 OA
ATOM     39  H   UNL     1       6.424  -3.344   2.921  1.00  0.00     0.210 HD
ENDBRANCH  37  38
ENDBRANCH  36  37
ENDBRANCH  35  36
ENDBRANCH   1  30
TORSDOF 12
