REMARK SMILES COc1cc2c(cc1OC)[C@@H](Cc1cc(OC)c(OC)c(OC)c1)[N+](C)(CCCOC(=O)CC/C=C/CCC(=O)OCCC[N+]1(C)CCc3cc(OC)c(OC)cc3[C@H]1Cc1cc(OC)c(OC)c(OC)c1)CC2
REMARK SMILES IDX 35 1 36 2 34 3 33 4 31 5 32 6 30 7 29 8 28 9 27 10 25 11
REMARK SMILES IDX 11 12 6 13 7 14 5 15 73 16 8 17 4 18 74 19 3 20 26 21 12 22
REMARK SMILES IDX 13 23 15 24 14 25 18 26 21 27 24 28 16 29 17 30 19 31 20 32
REMARK SMILES IDX 22 33 23 34 9 35 10 36 2 37 1 38 37 39 38 40 39 41 40 42
REMARK SMILES IDX 41 43 42 44 43 45 44 46 45 47 47 48 59 49 48 50 58 51 49 52
REMARK SMILES IDX 57 53 50 54 54 55 51 56 46 57 60 58 61 59 62 60 72 61 63 62
REMARK SMILES IDX 69 63 66 64 64 65 65 66 70 67 71 68 67 69 68 70 55 71 56 72
REMARK SMILES IDX 52 73 53 74
REMARK H PARENT
ROOT
ATOM      1  C   UNL     1       0.757   1.045   2.610  1.00  0.00    -0.031 C 
ATOM      2  C   UNL     1       0.678   1.313   1.297  1.00  0.00    -0.031 C 
ENDROOT
BRANCH   1   3
ATOM      3  C   UNL     1       0.906  -0.304   3.274  1.00  0.00     0.039 C 
BRANCH   3   4
ATOM      4  C   UNL     1       1.065  -1.537   2.383  1.00  0.00     0.127 C 
BRANCH   4   5
ATOM      5  C   UNL     1      -0.151  -1.830   1.544  1.00  0.00     0.306 C 
ATOM      6  O   UNL     1      -0.113  -1.995   0.330  1.00  0.00    -0.252 OA
BRANCH   5   7
ATOM      7  O   UNL     1      -1.275  -1.893   2.306  1.00  0.00    -0.465 OA
BRANCH   7   8
ATOM      8  C   UNL     1      -2.510  -2.078   1.602  1.00  0.00     0.238 C 
BRANCH   8   9
ATOM      9  C   UNL     1      -3.010  -0.732   1.073  1.00  0.00     0.103 C 
BRANCH   9  10
ATOM     10  C   UNL     1      -4.458  -0.845   0.606  1.00  0.00     0.267 C 
BRANCH  10  11
ATOM     11  N   UNL     1      -5.026   0.439  -0.056  1.00  0.00    -0.319 N 
ATOM     12  C   UNL     1      -6.611   0.406  -0.037  1.00  0.00     0.221 C 
ATOM     13  C   UNL     1      -7.215   1.571  -0.813  1.00  0.00     0.017 A 
ATOM     14  C   UNL     1      -8.488   2.054  -0.456  1.00  0.00     0.060 A 
ATOM     15  C   UNL     1      -6.541   2.148  -1.901  1.00  0.00    -0.029 A 
ATOM     16  C   UNL     1      -4.574   0.533  -1.520  1.00  0.00     0.269 C 
ATOM     17  C   UNL     1      -9.109   3.068  -1.190  1.00  0.00     0.161 A 
ATOM     18  C   UNL     1      -7.163   3.175  -2.632  1.00  0.00     0.055 A 
ATOM     19  C   UNL     1      -5.119   1.772  -2.238  1.00  0.00     0.097 C 
ATOM     20  C   UNL     1      -8.442   3.629  -2.293  1.00  0.00     0.161 A 
ATOM     21  C   UNL     1      -4.577   1.678   0.743  1.00  0.00     0.335 C 
BRANCH  12  22
ATOM     22  C   UNL     1      -7.192  -0.939  -0.587  1.00  0.00     0.106 C 
BRANCH  22  23
ATOM     23  C   UNL     1      -8.576  -1.238  -0.052  1.00  0.00    -0.034 A 
ATOM     24  C   UNL     1     -10.996  -1.326  -0.371  1.00  0.00     0.164 A 
ATOM     25  C   UNL     1      -9.707  -1.114  -0.878  1.00  0.00     0.054 A 
ATOM     26  C   UNL     1     -11.144  -1.686   0.977  1.00  0.00     0.203 A 
ATOM     27  C   UNL     1     -10.019  -1.863   1.789  1.00  0.00     0.164 A 
ATOM     28  C   UNL     1      -8.744  -1.618   1.286  1.00  0.00     0.054 A 
BRANCH  24  29
ATOM     29  O   UNL     1     -12.150  -1.214  -1.096  1.00  0.00    -0.493 OA
ATOM     30  C   UNL     1     -12.067  -0.614  -2.383  1.00  0.00     0.278 C 
ENDBRANCH  24  29
BRANCH  26  31
ATOM     31  O   UNL     1     -12.393  -1.916   1.498  1.00  0.00    -0.490 OA
ATOM     32  C   UNL     1     -12.956  -0.701   1.989  1.00  0.00     0.278 C 
ENDBRANCH  26  31
BRANCH  27  33
ATOM     33  O   UNL     1     -10.114  -2.173   3.121  1.00  0.00    -0.493 OA
ATOM     34  C   UNL     1     -10.477  -3.542   3.311  1.00  0.00     0.278 C 
ENDBRANCH  27  33
ENDBRANCH  22  23
ENDBRANCH  12  22
BRANCH  17  35
ATOM     35  O   UNL     1     -10.354   3.569  -0.918  1.00  0.00    -0.493 OA
ATOM     36  C   UNL     1     -11.114   2.968   0.122  1.00  0.00     0.278 C 
ENDBRANCH  17  35
BRANCH  20  37
ATOM     37  O   UNL     1      -9.102   4.634  -2.951  1.00  0.00    -0.493 OA
ATOM     38  C   UNL     1      -8.655   4.981  -4.253  1.00  0.00     0.278 C 
ENDBRANCH  20  37
ENDBRANCH  10  11
ENDBRANCH   9  10
ENDBRANCH   8   9
ENDBRANCH   7   8
ENDBRANCH   5   7
ENDBRANCH   4   5
ENDBRANCH   3   4
ENDBRANCH   1   3
BRANCH   2  39
ATOM     39  C   UNL     1       0.514   2.698   0.726  1.00  0.00     0.039 C 
BRANCH  39  40
ATOM     40  C   UNL     1       1.673   3.097  -0.187  1.00  0.00     0.127 C 
BRANCH  40  41
ATOM     41  C   UNL     1       1.725   2.278  -1.456  1.00  0.00     0.306 C 
ATOM     42  O   UNL     1       0.831   1.558  -1.878  1.00  0.00    -0.252 OA
BRANCH  41  43
ATOM     43  O   UNL     1       2.938   2.439  -2.055  1.00  0.00    -0.465 OA
BRANCH  43  44
ATOM     44  C   UNL     1       3.148   1.701  -3.272  1.00  0.00     0.238 C 
BRANCH  44  45
ATOM     45  C   UNL     1       3.623   0.277  -2.972  1.00  0.00     0.103 C 
BRANCH  45  46
ATOM     46  C   UNL     1       4.838   0.293  -2.039  1.00  0.00     0.267 C 
BRANCH  46  47
ATOM     47  N   UNL     1       5.475  -1.102  -1.783  1.00  0.00    -0.319 N 
ATOM     48  C   UNL     1       4.438  -2.024  -1.111  1.00  0.00     0.269 C 
ATOM     49  C   UNL     1       6.688  -0.900  -0.748  1.00  0.00     0.221 C 
ATOM     50  C   UNL     1       5.016  -3.400  -0.799  1.00  0.00     0.097 C 
ATOM     51  C   UNL     1       7.036  -2.144   0.074  1.00  0.00     0.017 A 
ATOM     52  C   UNL     1       6.263  -3.315   0.031  1.00  0.00    -0.029 A 
ATOM     53  C   UNL     1       8.112  -2.109   0.987  1.00  0.00     0.060 A 
ATOM     54  C   UNL     1       6.643  -4.446   0.780  1.00  0.00     0.055 A 
ATOM     55  C   UNL     1       8.482  -3.222   1.752  1.00  0.00     0.161 A 
ATOM     56  C   UNL     1       7.748  -4.411   1.634  1.00  0.00     0.161 A 
ATOM     57  C   UNL     1       5.959  -1.731  -3.093  1.00  0.00     0.335 C 
BRANCH  49  58
ATOM     58  C   UNL     1       7.917  -0.269  -1.492  1.00  0.00     0.106 C 
BRANCH  58  59
ATOM     59  C   UNL     1       8.786   0.658  -0.666  1.00  0.00    -0.034 A 
ATOM     60  C   UNL     1       8.242   1.783  -0.022  1.00  0.00     0.054 A 
ATOM     61  C   UNL     1      10.164   0.401  -0.555  1.00  0.00     0.054 A 
ATOM     62  C   UNL     1       9.045   2.606   0.774  1.00  0.00     0.164 A 
ATOM     63  C   UNL     1      10.978   1.222   0.228  1.00  0.00     0.164 A 
ATOM     64  C   UNL     1      10.407   2.300   0.917  1.00  0.00     0.203 A 
BRANCH  62  65
ATOM     65  O   UNL     1       8.592   3.693   1.473  1.00  0.00    -0.493 OA
ATOM     66  C   UNL     1       7.328   4.233   1.118  1.00  0.00     0.278 C 
ENDBRANCH  62  65
BRANCH  63  67
ATOM     67  O   UNL     1      12.314   0.987   0.420  1.00  0.00    -0.493 OA
ATOM     68  C   UNL     1      13.025   0.544  -0.732  1.00  0.00     0.278 C 
ENDBRANCH  63  67
BRANCH  64  69
ATOM     69  O   UNL     1      11.208   3.136   1.660  1.00  0.00    -0.490 OA
ATOM     70  C   UNL     1      11.326   2.646   2.995  1.00  0.00     0.278 C 
ENDBRANCH  64  69
ENDBRANCH  58  59
ENDBRANCH  49  58
BRANCH  55  71
ATOM     71  O   UNL     1       9.521  -3.235   2.645  1.00  0.00    -0.493 OA
ATOM     72  C   UNL     1      10.397  -2.115   2.685  1.00  0.00     0.278 C 
ENDBRANCH  55  71
BRANCH  56  73
ATOM     73  O   UNL     1       8.163  -5.457   2.413  1.00  0.00    -0.493 OA
ATOM     74  C   UNL     1       7.620  -6.746   2.147  1.00  0.00     0.278 C 
ENDBRANCH  56  73
ENDBRANCH  46  47
ENDBRANCH  45  46
ENDBRANCH  44  45
ENDBRANCH  43  44
ENDBRANCH  41  43
ENDBRANCH  40  41
ENDBRANCH  39  40
ENDBRANCH   2  39
TORSDOF 30
