REMARK SMILES COc1ccc(-c2noc(CC(=O)O)c2-c2ccc(OC)cc2)cc1
REMARK SMILES IDX 7 1 8 2 9 3 10 4 15 5 6 6 3 7 4 8 25 9 5 10 24 11 2 12 1 13
REMARK SMILES IDX 16 14 17 15 23 16 18 17 22 18 19 19 20 20 21 21 11 22 12 23
REMARK SMILES IDX 13 24 14 25
REMARK H PARENT 14 26
ROOT
ATOM      1  C   UNL     1      -0.841   1.506  -0.999  1.00  0.00     0.122 A 
ATOM      2  N   UNL     1      -1.029   2.672  -1.641  1.00  0.00    -0.079 NA
ATOM      3  O   UNL     1       0.221   3.190  -1.893  1.00  0.00    -0.359 OA
ATOM      4  C   UNL     1       1.173   2.341  -1.427  1.00  0.00     0.156 A 
ATOM      5  C   UNL     1       0.559   1.256  -0.839  1.00  0.00     0.053 A 
ENDROOT
BRANCH   1   6
ATOM      6  C   UNL     1      -1.984   0.689  -0.587  1.00  0.00     0.005 A 
ATOM      7  C   UNL     1      -4.207  -0.881   0.167  1.00  0.00     0.118 A 
ATOM      8  C   UNL     1      -4.244  -0.132  -1.007  1.00  0.00     0.047 A 
ATOM      9  C   UNL     1      -3.062  -0.838   0.965  1.00  0.00     0.047 A 
ATOM     10  C   UNL     1      -3.141   0.648  -1.379  1.00  0.00     0.014 A 
ATOM     11  C   UNL     1      -1.960  -0.058   0.596  1.00  0.00     0.014 A 
BRANCH   7  12
ATOM     12  O   UNL     1      -5.207  -1.682   0.645  1.00  0.00    -0.497 OA
ATOM     13  C   UNL     1      -6.403  -1.742  -0.122  1.00  0.00     0.278 C 
ENDBRANCH   7  12
ENDBRANCH   1   6
BRANCH   5  14
ATOM     14  C   UNL     1       1.276   0.126  -0.290  1.00  0.00    -0.012 A 
ATOM     15  C   UNL     1       2.052   0.271   0.865  1.00  0.00     0.013 A 
ATOM     16  C   UNL     1       1.189  -1.125  -0.906  1.00  0.00     0.013 A 
ATOM     17  C   UNL     1       2.742  -0.824   1.397  1.00  0.00     0.047 A 
ATOM     18  C   UNL     1       1.880  -2.215  -0.371  1.00  0.00     0.047 A 
ATOM     19  C   UNL     1       2.660  -2.072   0.780  1.00  0.00     0.118 A 
BRANCH  19  20
ATOM     20  O   UNL     1       3.281  -3.218   1.194  1.00  0.00    -0.497 OA
ATOM     21  C   UNL     1       4.066  -3.133   2.376  1.00  0.00     0.278 C 
ENDBRANCH  19  20
ENDBRANCH   5  14
BRANCH   4  22
ATOM     22  C   UNL     1       2.575   2.742  -1.689  1.00  0.00     0.201 C 
BRANCH  22  23
ATOM     23  C   UNL     1       3.108   3.589  -0.563  1.00  0.00     0.311 C 
ATOM     24  O   UNL     1       2.680   3.696   0.574  1.00  0.00    -0.252 OA
BRANCH  23  25
ATOM     25  O   UNL     1       4.234   4.247  -0.920  1.00  0.00    -0.481 OA
ATOM     26  H   UNL     1       4.480   4.751  -0.115  1.00  0.00     0.296 HD
ENDBRANCH  23  25
ENDBRANCH  22  23
ENDBRANCH   4  22
TORSDOF 7
