REMARK SMILES OCCN(CCO)c1nc(N2CCCCC2)c2nc(N(CCO)CCO)ncc2n1
REMARK SMILES IDX 19 1 27 2 28 3 29 4 30 5 8 6 9 7 10 8 17 9 18 10 20 11 21 12
REMARK SMILES IDX 22 13 23 14 24 16 25 17 26 18 11 20 12 21 16 22 13 23 15 24
REMARK SMILES IDX 14 25 4 26 3 27 2 28 1 29 5 31 6 32 7 33
REMARK H PARENT 23 15 26 19 1 30 7 34
ROOT
ATOM      1  C   UNL     1       2.590   1.202  -0.078  1.00  0.00     0.226 A 
ATOM      2  N   UNL     1       2.181   2.461  -0.189  1.00  0.00    -0.219 NA
ATOM      3  C   UNL     1       0.847   2.674  -0.220  1.00  0.00     0.146 A 
ATOM      4  C   UNL     1      -0.124   1.703  -0.170  1.00  0.00     0.115 A 
ATOM      5  N   UNL     1      -1.421   2.044  -0.231  1.00  0.00    -0.209 NA
ATOM      6  C   UNL     1      -2.304   1.053  -0.238  1.00  0.00     0.228 A 
ATOM      7  N   UNL     1      -1.950  -0.231  -0.170  1.00  0.00    -0.193 NA
ATOM      8  C   UNL     1      -0.636  -0.562  -0.074  1.00  0.00     0.161 A 
ATOM      9  C   UNL     1       0.379   0.415  -0.071  1.00  0.00     0.137 A 
ATOM     10  N   UNL     1       1.726   0.181  -0.013  1.00  0.00    -0.207 NA
ENDROOT
BRANCH   1  11
ATOM     11  N   UNL     1       3.968   0.971   0.016  1.00  0.00    -0.336 N 
BRANCH  11  12
ATOM     12  C   UNL     1       4.320  -0.351   0.562  1.00  0.00     0.148 C 
BRANCH  12  13
ATOM     13  C   UNL     1       4.073  -0.433   2.078  1.00  0.00     0.177 C 
BRANCH  13  14
ATOM     14  O   UNL     1       4.250  -1.776   2.524  1.00  0.00    -0.395 OA
ATOM     15  H   UNL     1       3.942  -1.818   3.446  1.00  0.00     0.210 HD
ENDBRANCH  13  14
ENDBRANCH  12  13
ENDBRANCH  11  12
BRANCH  11  16
ATOM     16  C   UNL     1       4.665   1.330  -1.238  1.00  0.00     0.148 C 
BRANCH  16  17
ATOM     17  C   UNL     1       4.899   2.846  -1.378  1.00  0.00     0.177 C 
BRANCH  17  18
ATOM     18  O   UNL     1       5.379   3.381  -0.144  1.00  0.00    -0.395 OA
ATOM     19  H   UNL     1       4.777   2.990   0.521  1.00  0.00     0.210 HD
ENDBRANCH  17  18
ENDBRANCH  16  17
ENDBRANCH  11  16
ENDBRANCH   1  11
BRANCH   8  20
ATOM     20  N   UNL     1      -0.406  -1.949   0.027  1.00  0.00    -0.355 N 
ATOM     21  C   UNL     1       0.904  -2.438   0.465  1.00  0.00     0.118 C 
ATOM     22  C   UNL     1      -0.998  -2.700  -1.093  1.00  0.00     0.118 C 
ATOM     23  C   UNL     1       0.798  -3.913   0.859  1.00  0.00     0.022 C 
ATOM     24  C   UNL     1      -1.113  -4.179  -0.734  1.00  0.00     0.022 C 
ATOM     25  C   UNL     1       0.227  -4.750  -0.279  1.00  0.00     0.004 C 
ENDBRANCH   8  20
BRANCH   6  26
ATOM     26  N   UNL     1      -3.659   1.411  -0.323  1.00  0.00    -0.336 N 
BRANCH  26  27
ATOM     27  C   UNL     1      -4.250   1.356   1.037  1.00  0.00     0.148 C 
BRANCH  27  28
ATOM     28  C   UNL     1      -3.832   2.557   1.904  1.00  0.00     0.177 C 
BRANCH  28  29
ATOM     29  O   UNL     1      -4.732   2.745   2.995  1.00  0.00    -0.395 OA
ATOM     30  H   UNL     1      -5.604   2.985   2.617  1.00  0.00     0.210 HD
ENDBRANCH  28  29
ENDBRANCH  27  28
ENDBRANCH  26  27
BRANCH  26  31
ATOM     31  C   UNL     1      -4.359   0.554  -1.307  1.00  0.00     0.148 C 
BRANCH  31  32
ATOM     32  C   UNL     1      -5.213   1.437  -2.233  1.00  0.00     0.177 C 
BRANCH  32  33
ATOM     33  O   UNL     1      -6.008   2.355  -1.482  1.00  0.00    -0.395 OA
ATOM     34  H   UNL     1      -5.355   2.856  -0.957  1.00  0.00     0.210 HD
ENDBRANCH  32  33
ENDBRANCH  31  32
ENDBRANCH  26  31
ENDBRANCH   6  26
TORSDOF 15
