REMARK SMILES CCOC(=O)Nc1ccc2c(c1)N(C(=O)CCN1CCOCC1)c1ccccc1S2
REMARK SMILES IDX 7 1 8 2 9 3 10 4 30 5 29 6 28 7 27 8 26 9 25 10 24 11 13 12
REMARK SMILES IDX 11 13 12 14 6 15 4 16 5 17 3 19 2 20 1 21 14 22 15 23 16 24
REMARK SMILES IDX 17 25 18 26 19 27 23 28 20 29 22 30 21 31
REMARK H PARENT 6 18
ROOT
ATOM      1  C   UNL     1       2.898   0.251  -0.234  1.00  0.00     0.046 A 
ATOM      2  C   UNL     1       3.575   0.889   0.796  1.00  0.00     0.027 A 
ATOM      3  C   UNL     1       2.967   1.943   1.475  1.00  0.00     0.020 A 
ATOM      4  C   UNL     1       1.671   2.373   1.147  1.00  0.00     0.037 A 
ATOM      5  S   UNL     1       1.027   3.729   2.077  1.00  0.00    -0.086 SA
ATOM      6  C   UNL     1      -0.255   4.277   0.979  1.00  0.00     0.036 A 
ATOM      7  C   UNL     1      -0.727   5.585   1.204  1.00  0.00     0.017 A 
ATOM      8  C   UNL     1      -1.792   6.097   0.473  1.00  0.00     0.001 A 
ATOM      9  C   UNL     1      -2.395   5.301  -0.485  1.00  0.00     0.002 A 
ATOM     10  C   UNL     1      -1.935   3.996  -0.705  1.00  0.00     0.028 A 
ATOM     11  C   UNL     1      -0.844   3.452   0.003  1.00  0.00     0.063 A 
ATOM     12  N   UNL     1      -0.396   2.098  -0.243  1.00  0.00    -0.279 N 
ATOM     13  C   UNL     1       0.948   1.725   0.140  1.00  0.00     0.065 A 
ATOM     14  C   UNL     1       1.602   0.681  -0.558  1.00  0.00     0.054 A 
ENDROOT
BRANCH   1  15
ATOM     15  N   UNL     1       3.434  -0.812  -0.983  1.00  0.00    -0.291 N 
ATOM     16  C   UNL     1       4.656  -1.409  -0.851  1.00  0.00     0.411 C 
ATOM     17  O   UNL     1       5.544  -1.145  -0.055  1.00  0.00    -0.224 OA
ATOM     18  H   UNL     1       2.873  -1.216  -1.718  1.00  0.00     0.173 HD
BRANCH  16  19
ATOM     19  O   UNL     1       4.735  -2.398  -1.783  1.00  0.00    -0.450 OA
BRANCH  19  20
ATOM     20  C   UNL     1       5.962  -3.140  -1.761  1.00  0.00     0.231 C 
ATOM     21  C   UNL     1       5.979  -4.058  -2.967  1.00  0.00     0.049 C 
ENDBRANCH  19  20
ENDBRANCH  16  19
ENDBRANCH   1  15
BRANCH  12  22
ATOM     22  C   UNL     1      -1.207   1.184  -0.941  1.00  0.00     0.232 C 
ATOM     23  O   UNL     1      -1.804   1.415  -1.992  1.00  0.00    -0.274 OA
BRANCH  22  24
ATOM     24  C   UNL     1      -1.353  -0.174  -0.256  1.00  0.00     0.116 C 
BRANCH  24  25
ATOM     25  C   UNL     1      -2.833  -0.569  -0.202  1.00  0.00     0.094 C 
BRANCH  25  26
ATOM     26  N   UNL     1      -3.029  -1.874   0.447  1.00  0.00    -0.298 NA
ATOM     27  C   UNL     1      -2.816  -1.855   1.909  1.00  0.00     0.113 C 
ATOM     28  C   UNL     1      -4.355  -2.436   0.118  1.00  0.00     0.113 C 
ATOM     29  C   UNL     1      -4.089  -2.115   2.736  1.00  0.00     0.175 C 
ATOM     30  C   UNL     1      -4.673  -3.651   1.001  1.00  0.00     0.175 C 
ATOM     31  O   UNL     1      -4.747  -3.342   2.398  1.00  0.00    -0.379 OA
ENDBRANCH  25  26
ENDBRANCH  24  25
ENDBRANCH  22  24
ENDBRANCH  12  22
TORSDOF 7
