REMARK SMILES O=C(OCCN1CCOCC1)c1cccnc1Nc1cccc(C(F)(F)F)c1
REMARK SMILES IDX 17 1 12 2 13 3 14 4 15 5 16 6 18 7 19 9 23 10 22 11 28 12
REMARK SMILES IDX 21 13 20 14 24 15 25 16 26 17 27 18 2 19 1 20 3 21 4 22 5 23
REMARK SMILES IDX 6 24 7 25 11 26 8 27 10 28 9 29
REMARK H PARENT 18 8
ROOT
ATOM      1  C   UNL     1       1.975   2.049  -0.102  1.00  0.00     0.144 A 
ATOM      2  C   UNL     1       0.696   2.495   0.274  1.00  0.00     0.102 A 
ATOM      3  C   UNL     1       0.417   3.870   0.265  1.00  0.00     0.021 A 
ATOM      4  C   UNL     1       1.396   4.769  -0.133  1.00  0.00     0.021 A 
ATOM      5  C   UNL     1       2.623   4.258  -0.503  1.00  0.00     0.113 A 
ATOM      6  N   UNL     1       2.923   2.940  -0.489  1.00  0.00    -0.238 NA
ENDROOT
BRANCH   1   7
ATOM      7  N   UNL     1       2.304   0.675  -0.021  1.00  0.00    -0.340 N 
ATOM      8  H   UNL     1       1.521   0.118  -0.357  1.00  0.00     0.168 HD
BRANCH   7   9
ATOM      9  C   UNL     1       3.541   0.018  -0.182  1.00  0.00     0.040 A 
ATOM     10  C   UNL     1       4.736  -2.087  -0.599  1.00  0.00     0.058 A 
ATOM     11  C   UNL     1       5.955  -1.430  -0.397  1.00  0.00     0.013 A 
ATOM     12  C   UNL     1       3.540  -1.357  -0.470  1.00  0.00     0.039 A 
ATOM     13  C   UNL     1       5.973  -0.075  -0.078  1.00  0.00     0.003 A 
ATOM     14  C   UNL     1       4.775   0.636   0.036  1.00  0.00     0.026 A 
BRANCH  10  15
ATOM     15  C   UNL     1       4.697  -3.563  -0.904  1.00  0.00     0.416 C 
ATOM     16  F   UNL     1       5.815  -4.011  -1.542  1.00  0.00    -0.166 F 
ATOM     17  F   UNL     1       4.579  -4.322   0.220  1.00  0.00    -0.166 F 
ATOM     18  F   UNL     1       3.650  -3.913  -1.703  1.00  0.00    -0.166 F 
ENDBRANCH  10  15
ENDBRANCH   7   9
ENDBRANCH   1   7
BRANCH   2  19
ATOM     19  C   UNL     1      -0.399   1.596   0.702  1.00  0.00     0.341 C 
ATOM     20  O   UNL     1      -1.281   1.936   1.474  1.00  0.00    -0.246 OA
BRANCH  19  21
ATOM     21  O   UNL     1      -0.330   0.405   0.053  1.00  0.00    -0.461 OA
BRANCH  21  22
ATOM     22  C   UNL     1      -1.372  -0.535   0.382  1.00  0.00     0.248 C 
BRANCH  22  23
ATOM     23  C   UNL     1      -2.649  -0.234  -0.421  1.00  0.00     0.126 C 
BRANCH  23  24
ATOM     24  N   UNL     1      -3.699  -1.254  -0.266  1.00  0.00    -0.295 NA
ATOM     25  C   UNL     1      -4.828  -1.020  -1.195  1.00  0.00     0.113 C 
ATOM     26  C   UNL     1      -4.189  -1.326   1.131  1.00  0.00     0.113 C 
ATOM     27  C   UNL     1      -6.028  -0.319  -0.540  1.00  0.00     0.175 C 
ATOM     28  C   UNL     1      -5.615  -1.891   1.216  1.00  0.00     0.175 C 
ATOM     29  O   UNL     1      -6.580  -1.058   0.558  1.00  0.00    -0.379 OA
ENDBRANCH  23  24
ENDBRANCH  22  23
ENDBRANCH  21  22
ENDBRANCH  19  21
ENDBRANCH   2  19
TORSDOF 8
