REMARK SMILES CCNC(=O)/C=C(C)/C=C/C=C(C)/C=C/c1c(C)cc(OC)c(C)c1C
REMARK SMILES IDX 9 1 10 2 7 3 6 4 8 5 4 6 3 7 5 8 2 10 1 11 11 12 12 13 13 14
REMARK SMILES IDX 14 15 15 16 16 17 25 18 17 19 23 20 19 21 20 22 26 23 18 24
REMARK SMILES IDX 24 25 21 26 22 27
REMARK H PARENT 3 9
ROOT
ATOM      1  C   UNL     1       3.245   0.140  -0.249  1.00  0.00     0.003 C 
ATOM      2  C   UNL     1       2.242  -0.659  -0.655  1.00  0.00     0.001 C 
ENDROOT
BRANCH   1   3
ATOM      3  C   UNL     1       4.678  -0.088  -0.453  1.00  0.00    -0.046 C 
ATOM      4  C   UNL     1       5.534   0.902  -0.124  1.00  0.00     0.074 C 
ATOM      5  C   UNL     1       5.110  -1.432  -0.986  1.00  0.00     0.044 C 
BRANCH   4   6
ATOM      6  C   UNL     1       7.009   0.872  -0.321  1.00  0.00     0.244 C 
ATOM      7  N   UNL     1       7.671   1.660   0.594  1.00  0.00    -0.353 N 
ATOM      8  O   UNL     1       7.558   0.226  -1.202  1.00  0.00    -0.270 OA
ATOM      9  H   UNL     1       7.157   2.075   1.360  1.00  0.00     0.163 HD
BRANCH   7  10
ATOM     10  C   UNL     1       9.117   1.712   0.638  1.00  0.00     0.112 C 
ATOM     11  C   UNL     1       9.690   0.584   1.479  1.00  0.00     0.027 C 
ENDBRANCH   7  10
ENDBRANCH   4   6
ENDBRANCH   1   3
BRANCH   2  12
ATOM     12  C   UNL     1       0.849  -0.353  -0.391  1.00  0.00     0.003 C 
ATOM     13  C   UNL     1      -0.237  -1.052  -0.785  1.00  0.00    -0.051 C 
ATOM     14  C   UNL     1      -0.196  -2.309  -1.619  1.00  0.00     0.044 C 
BRANCH  13  15
ATOM     15  C   UNL     1      -1.557  -0.561  -0.379  1.00  0.00     0.004 C 
ATOM     16  C   UNL     1      -2.744  -1.112  -0.686  1.00  0.00     0.009 C 
BRANCH  16  17
ATOM     17  C   UNL     1      -4.008  -0.518  -0.214  1.00  0.00    -0.019 A 
ATOM     18  C   UNL     1      -4.557   0.625  -0.846  1.00  0.00    -0.037 A 
ATOM     19  C   UNL     1      -4.662  -1.098   0.892  1.00  0.00    -0.040 A 
ATOM     20  C   UNL     1      -5.732   1.221  -0.315  1.00  0.00    -0.005 A 
ATOM     21  C   UNL     1      -5.852  -0.526   1.367  1.00  0.00     0.050 A 
ATOM     22  C   UNL     1      -6.391   0.619   0.776  1.00  0.00     0.122 A 
ATOM     23  C   UNL     1      -3.874   1.241  -2.048  1.00  0.00     0.045 C 
ATOM     24  C   UNL     1      -4.112  -2.318   1.588  1.00  0.00     0.045 C 
ATOM     25  C   UNL     1      -6.308   2.470  -0.943  1.00  0.00     0.049 C 
BRANCH  22  26
ATOM     26  O   UNL     1      -7.551   1.224   1.187  1.00  0.00    -0.496 OA
ATOM     27  C   UNL     1      -8.275   0.620   2.251  1.00  0.00     0.278 C 
ENDBRANCH  22  26
ENDBRANCH  16  17
ENDBRANCH  13  15
ENDBRANCH   2  12
TORSDOF 7
