REMARK SMILES CN(C)CCOC(C)(c1ccccc1)c1ccccc1
REMARK SMILES IDX 5 1 4 2 2 3 1 4 3 5 6 6 7 7 8 8 9 9 10 10 14 11 11 12 13 13
REMARK SMILES IDX 12 14 15 15 16 16 20 17 17 18 19 19 18 20
REMARK H PARENT
ROOT
ATOM      1  C   UNL     1       1.141   0.970   0.030  1.00  0.00     0.177 C 
ENDROOT
BRANCH   1   2
ATOM      2  C   UNL     1       2.596   0.976  -0.482  1.00  0.00     0.112 C 
BRANCH   2   3
ATOM      3  N   UNL     1       3.238  -0.357  -0.530  1.00  0.00    -0.307 NA
ATOM      4  C   UNL     1       4.447  -0.302  -1.355  1.00  0.00     0.105 C 
ATOM      5  C   UNL     1       3.577  -0.843   0.809  1.00  0.00     0.105 C 
ENDBRANCH   2   3
ENDBRANCH   1   2
BRANCH   1   6
ATOM      6  O   UNL     1       0.278   0.437  -0.978  1.00  0.00    -0.365 OA
BRANCH   6   7
ATOM      7  C   UNL     1      -1.076   0.115  -0.577  1.00  0.00     0.115 C 
ATOM      8  C   UNL     1      -1.805  -0.107  -1.928  1.00  0.00     0.053 C 
BRANCH   7   9
ATOM      9  C   UNL     1      -1.157  -1.263   0.126  1.00  0.00    -0.012 A 
ATOM     10  C   UNL     1      -2.356  -1.701   0.725  1.00  0.00     0.007 A 
ATOM     11  C   UNL     1      -0.071  -2.156   0.114  1.00  0.00     0.007 A 
ATOM     12  C   UNL     1      -2.445  -2.956   1.333  1.00  0.00     0.000 A 
ATOM     13  C   UNL     1      -0.160  -3.411   0.722  1.00  0.00     0.000 A 
ATOM     14  C   UNL     1      -1.344  -3.808   1.336  1.00  0.00     0.000 A 
ENDBRANCH   7   9
BRANCH   7  15
ATOM     15  C   UNL     1      -1.699   1.293   0.214  1.00  0.00    -0.012 A 
ATOM     16  C   UNL     1      -1.680   1.318   1.625  1.00  0.00     0.007 A 
ATOM     17  C   UNL     1      -2.239   2.417  -0.439  1.00  0.00     0.007 A 
ATOM     18  C   UNL     1      -2.216   2.389   2.344  1.00  0.00     0.000 A 
ATOM     19  C   UNL     1      -2.774   3.490   0.280  1.00  0.00     0.000 A 
ATOM     20  C   UNL     1      -2.768   3.474   1.671  1.00  0.00     0.000 A 
ENDBRANCH   7  15
ENDBRANCH   6   7
ENDBRANCH   1   6
TORSDOF 6
