REMARK SMILES COc1nc(C)nc(Cl)c1NC1=NCCN1
REMARK SMILES IDX 3 1 4 2 5 3 6 4 7 5 8 6 9 7 10 8 2 9 1 10 11 11 12 12 13 13
REMARK SMILES IDX 16 14 14 15 15 16
REMARK H PARENT 11 17 16 18
ROOT
ATOM      1  C   UNL     1      -1.148  -0.423   0.321  1.00  0.00     0.242 A 
ATOM      2  N   UNL     1      -2.422  -0.260  -0.106  1.00  0.00    -0.197 NA
ATOM      3  C   UNL     1      -3.055   0.855   0.288  1.00  0.00     0.131 A 
ATOM      4  C   UNL     1      -4.469   1.048  -0.164  1.00  0.00     0.090 C 
ATOM      5  N   UNL     1      -2.529   1.780   1.100  1.00  0.00    -0.219 NA
ATOM      6  C   UNL     1      -1.262   1.551   1.494  1.00  0.00     0.160 A 
ATOM      7  Cl  UNL     1      -0.652   2.791   2.532  1.00  0.00    -0.060 Cl
ATOM      8  C   UNL     1      -0.481   0.460   1.155  1.00  0.00     0.142 A 
ENDROOT
BRANCH   1   9
ATOM      9  O   UNL     1      -0.519  -1.619   0.021  1.00  0.00    -0.479 OA
ATOM     10  C   UNL     1      -0.996  -2.197  -1.187  1.00  0.00     0.280 C 
ENDBRANCH   1   9
BRANCH   8  11
ATOM     11  N   UNL     1       0.856   0.314   1.573  1.00  0.00    -0.319 N 
ATOM     12  C   UNL     1       1.876   0.179   0.682  1.00  0.00     0.196 C 
ATOM     13  N   UNL     1       1.832   0.157  -0.619  1.00  0.00    -0.251 NA
ATOM     14  N   UNL     1       3.102   0.067   1.271  1.00  0.00    -0.354 N 
ATOM     15  C   UNL     1       3.253   0.020  -1.033  1.00  0.00     0.167 C 
ATOM     16  C   UNL     1       4.036  -0.327   0.234  1.00  0.00     0.139 C 
ATOM     17  H   UNL     1       1.097   0.942   2.333  1.00  0.00     0.170 HD
ATOM     18  H   UNL     1       3.105  -0.535   2.087  1.00  0.00     0.163 HD
ENDBRANCH   8  11
TORSDOF 2
