REMARK SMILES C/C(=C\C(=O)OCCCCCCCCC(=O)O)C[C@@H]1OC[C@H](C[C@@H]2O[C@H]2[C@@H](C)[C@H](C)O)[C@@H](O)[C@H]1O
REMARK SMILES IDX 6 1 4 2 5 3 3 4 2 5 1 6 18 7 19 8 22 9 21 10 32 11 20 12
REMARK SMILES IDX 34 13 23 14 24 15 26 16 25 17 27 18 28 19 29 20 30 21 31 22
REMARK SMILES IDX 33 24 35 26 7 28 8 29 9 30 10 31 11 32 12 33 13 34 14 35
REMARK SMILES IDX 15 36 16 37 17 38
REMARK H PARENT 31 23 33 25 35 27 17 39
ROOT
ATOM      1  O   UNL     1       3.215  -0.155  -1.779  1.00  0.00    -0.463 OA
ENDROOT
BRANCH   1   2
ATOM      2  C   UNL     1       2.154   0.034  -2.594  1.00  0.00     0.330 C 
ATOM      3  O   UNL     1       2.125  -0.173  -3.799  1.00  0.00    -0.247 OA
BRANCH   2   4
ATOM      4  C   UNL     1       0.947   0.478  -1.854  1.00  0.00     0.092 C 
ATOM      5  C   UNL     1       0.856   1.138  -0.679  1.00  0.00    -0.063 C 
ATOM      6  C   UNL     1       2.055   1.617   0.103  1.00  0.00     0.040 C 
BRANCH   5   7
ATOM      7  C   UNL     1      -0.469   1.520  -0.028  1.00  0.00     0.066 C 
BRANCH   7   8
ATOM      8  C   UNL     1      -1.793   1.021  -0.645  1.00  0.00     0.153 C 
ATOM      9  C   UNL     1      -4.406  -0.136   0.160  1.00  0.00     0.049 C 
ATOM     10  C   UNL     1      -4.156   1.297  -0.340  1.00  0.00     0.167 C 
ATOM     11  C   UNL     1      -3.081  -0.808   0.551  1.00  0.00     0.151 C 
ATOM     12  O   UNL     1      -2.848   1.746   0.018  1.00  0.00    -0.375 OA
ATOM     13  C   UNL     1      -1.979  -0.501  -0.472  1.00  0.00     0.172 C 
BRANCH   9  14
ATOM     14  C   UNL     1      -5.404  -0.171   1.337  1.00  0.00     0.043 C 
BRANCH  14  15
ATOM     15  C   UNL     1      -6.826  -0.085   0.867  1.00  0.00     0.148 C 
ATOM     16  C   UNL     1      -7.863   0.669   1.676  1.00  0.00     0.153 C 
ATOM     17  O   UNL     1      -7.261   1.224   0.491  1.00  0.00    -0.369 OA
BRANCH  16  18
ATOM     18  C   UNL     1      -9.366   0.491   1.581  1.00  0.00     0.046 C 
ATOM     19  C   UNL     1     -10.018   1.853   1.317  1.00  0.00     0.013 C 
BRANCH  18  20
ATOM     20  C   UNL     1      -9.812  -0.593   0.573  1.00  0.00     0.116 C 
ATOM     21  C   UNL     1     -11.323  -0.680   0.380  1.00  0.00     0.038 C 
BRANCH  20  22
ATOM     22  O   UNL     1      -9.373  -1.880   1.031  1.00  0.00    -0.393 OA
ATOM     23  H   UNL     1      -9.785  -2.050   1.895  1.00  0.00     0.210 HD
ENDBRANCH  20  22
ENDBRANCH  18  20
ENDBRANCH  16  18
ENDBRANCH  14  15
ENDBRANCH   9  14
BRANCH  11  24
ATOM     24  O   UNL     1      -3.275  -2.223   0.629  1.00  0.00    -0.390 OA
ATOM     25  H   UNL     1      -3.153  -2.565  -0.279  1.00  0.00     0.211 HD
ENDBRANCH  11  24
BRANCH  13  26
ATOM     26  O   UNL     1      -2.340  -1.114  -1.729  1.00  0.00    -0.388 OA
ATOM     27  H   UNL     1      -3.043  -0.586  -2.145  1.00  0.00     0.211 HD
ENDBRANCH  13  26
ENDBRANCH   7   8
ENDBRANCH   5   7
ENDBRANCH   2   4
ENDBRANCH   1   2
BRANCH   1  28
ATOM     28  C   UNL     1       4.402  -0.600  -2.446  1.00  0.00     0.233 C 
BRANCH  28  29
ATOM     29  C   UNL     1       5.596  -0.441  -1.508  1.00  0.00     0.042 C 
BRANCH  29  30
ATOM     30  C   UNL     1       5.516  -1.366  -0.291  1.00  0.00     0.003 C 
BRANCH  30  31
ATOM     31  C   UNL     1       6.620  -1.128   0.749  1.00  0.00     0.000 C 
BRANCH  31  32
ATOM     32  C   UNL     1       8.045  -1.402   0.249  1.00  0.00     0.000 C 
BRANCH  32  33
ATOM     33  C   UNL     1       8.769  -0.133  -0.219  1.00  0.00     0.001 C 
BRANCH  33  34
ATOM     34  C   UNL     1      10.125  -0.420  -0.875  1.00  0.00     0.012 C 
BRANCH  34  35
ATOM     35  C   UNL     1      11.197  -0.949   0.078  1.00  0.00     0.122 C 
BRANCH  35  36
ATOM     36  C   UNL     1      11.673   0.097   1.053  1.00  0.00     0.303 C 
ATOM     37  O   UNL     1      11.551   1.306   0.958  1.00  0.00    -0.252 OA
BRANCH  36  38
ATOM     38  O   UNL     1      12.330  -0.447   2.096  1.00  0.00    -0.481 OA
ATOM     39  H   UNL     1      12.606   0.325   2.633  1.00  0.00     0.296 HD
ENDBRANCH  36  38
ENDBRANCH  35  36
ENDBRANCH  34  35
ENDBRANCH  33  34
ENDBRANCH  32  33
ENDBRANCH  31  32
ENDBRANCH  30  31
ENDBRANCH  29  30
ENDBRANCH  28  29
ENDBRANCH   1  28
TORSDOF 21
