REMARK SMILES CCN(CC)CCOCCC1=CC[C@H]2C[C@@H]1C2(C)C
REMARK SMILES IDX 7 1 6 2 3 3 2 4 1 5 4 6 5 7 8 8 9 9 10 10 11 11 12 12 16 13
REMARK SMILES IDX 13 14 15 15 17 16 14 17 18 18 19 19
REMARK H PARENT
ROOT
ATOM      1  C   UNL     1       1.968  -0.524   0.382  1.00  0.00     0.175 C 
ENDROOT
BRANCH   1   2
ATOM      2  C   UNL     1       3.459  -0.738   0.053  1.00  0.00     0.113 C 
BRANCH   2   3
ATOM      3  N   UNL     1       3.960   0.054  -1.081  1.00  0.00    -0.302 NA
BRANCH   3   4
ATOM      4  C   UNL     1       3.878   1.509  -0.951  1.00  0.00     0.081 C 
ATOM      5  C   UNL     1       4.334   2.123   0.370  1.00  0.00     0.021 C 
ENDBRANCH   3   4
BRANCH   3   6
ATOM      6  C   UNL     1       5.214  -0.450  -1.642  1.00  0.00     0.081 C 
ATOM      7  C   UNL     1       6.457  -0.321  -0.771  1.00  0.00     0.021 C 
ENDBRANCH   3   6
ENDBRANCH   2   3
ENDBRANCH   1   2
BRANCH   1   8
ATOM      8  O   UNL     1       1.153  -1.059  -0.663  1.00  0.00    -0.380 OA
BRANCH   8   9
ATOM      9  C   UNL     1      -0.227  -0.709  -0.546  1.00  0.00     0.164 C 
BRANCH   9  10
ATOM     10  C   UNL     1      -0.934  -1.514   0.548  1.00  0.00     0.059 C 
BRANCH  10  11
ATOM     11  C   UNL     1      -2.411  -1.258   0.584  1.00  0.00    -0.068 C 
ATOM     12  C   UNL     1      -3.361  -2.146   0.225  1.00  0.00    -0.027 C 
ATOM     13  C   UNL     1      -2.921   0.071   1.088  1.00  0.00     0.021 C 
ATOM     14  C   UNL     1      -4.831  -1.782   0.287  1.00  0.00     0.031 C 
ATOM     15  C   UNL     1      -4.103  -0.156   2.100  1.00  0.00     0.013 C 
ATOM     16  C   UNL     1      -4.015   0.740   0.140  1.00  0.00    -0.026 C 
ATOM     17  C   UNL     1      -4.974  -0.338   0.814  1.00  0.00    -0.000 C 
ATOM     18  C   UNL     1      -3.808   0.649  -1.378  1.00  0.00     0.012 C 
ATOM     19  C   UNL     1      -4.344   2.209   0.472  1.00  0.00     0.012 C 
ENDBRANCH  10  11
ENDBRANCH   9  10
ENDBRANCH   8   9
ENDBRANCH   1   8
TORSDOF 8
