REMARK SMILES CC1CCc2c(N3CCC(O)CC3)c(F)cc3c(=O)c(C(=O)O)cn1c23
REMARK SMILES IDX 1 1 2 2 3 3 4 4 5 5 6 6 14 7 15 8 16 9 17 10 26 11 25 12
REMARK SMILES IDX 24 13 20 14 18 15 19 16 21 17 22 18 23 19 7 21 8 22 13 23
REMARK SMILES IDX 9 24 12 25 10 26 11 27
REMARK H PARENT 23 20 11 28
ROOT
ATOM      1  C   UNL     1       3.930   2.509   0.010  1.00  0.00     0.031 C 
ATOM      2  C   UNL     1       2.630   1.798  -0.391  1.00  0.00     0.084 C 
ATOM      3  C   UNL     1       1.481   2.492   0.341  1.00  0.00     0.030 C 
ATOM      4  C   UNL     1       0.160   1.895  -0.096  1.00  0.00     0.042 C 
ATOM      5  C   UNL     1       0.163   0.397   0.081  1.00  0.00     0.003 A 
ATOM      6  C   UNL     1      -1.077  -0.288   0.203  1.00  0.00     0.078 A 
ATOM      7  C   UNL     1      -1.047  -1.681   0.371  1.00  0.00     0.147 A 
ATOM      8  F   UNL     1      -2.183  -2.379   0.504  1.00  0.00    -0.205 F 
ATOM      9  C   UNL     1       0.145  -2.387   0.403  1.00  0.00     0.056 A 
ATOM     10  C   UNL     1       1.353  -1.704   0.251  1.00  0.00     0.050 A 
ATOM     11  C   UNL     1       1.394  -0.306   0.079  1.00  0.00     0.058 A 
ATOM     12  N   UNL     1       2.650   0.344  -0.079  1.00  0.00    -0.343 N 
ATOM     13  C   UNL     1       3.781  -0.453  -0.229  1.00  0.00     0.106 C 
ATOM     14  C   UNL     1       3.864  -1.785  -0.080  1.00  0.00     0.124 C 
ATOM     15  C   UNL     1       2.610  -2.491   0.261  1.00  0.00     0.204 C 
ATOM     16  O   UNL     1       2.581  -3.683   0.547  1.00  0.00    -0.288 OA
ENDROOT
BRANCH  14  17
ATOM     17  C   UNL     1       5.136  -2.501  -0.285  1.00  0.00     0.341 C 
ATOM     18  O   UNL     1       5.290  -3.692  -0.482  1.00  0.00    -0.246 OA
BRANCH  17  19
ATOM     19  O   UNL     1       6.216  -1.692  -0.250  1.00  0.00    -0.477 OA
ATOM     20  H   UNL     1       6.960  -2.318  -0.382  1.00  0.00     0.297 HD
ENDBRANCH  17  19
ENDBRANCH  14  17
BRANCH   6  21
ATOM     21  N   UNL     1      -2.263   0.449   0.149  1.00  0.00    -0.369 N 
ATOM     22  C   UNL     1      -2.972   0.686   1.410  1.00  0.00     0.119 C 
ATOM     23  C   UNL     1      -3.087   0.334  -1.055  1.00  0.00     0.119 C 
ATOM     24  C   UNL     1      -4.122  -0.292   1.623  1.00  0.00     0.053 C 
ATOM     25  C   UNL     1      -4.251  -0.638  -0.880  1.00  0.00     0.053 C 
ATOM     26  C   UNL     1      -5.033  -0.371   0.402  1.00  0.00     0.118 C 
BRANCH  26  27
ATOM     27  O   UNL     1      -5.763   0.851   0.284  1.00  0.00    -0.393 OA
ATOM     28  H   UNL     1      -6.438   0.722  -0.404  1.00  0.00     0.210 HD
ENDBRANCH  26  27
ENDBRANCH   6  21
TORSDOF 4
