REMARK SMILES CN(C(=O)/C=C/c1ccoc1)[C@@H]1CC[C@@]2(O)[C@H]3Cc4ccc(O)c5c4[C@@]2(CCN3CC2CC2)[C@H]1O5
REMARK SMILES IDX 1 1 2 2 12 3 13 4 34 5 14 6 35 7 26 8 15 9 24 10 27 11 25 12
REMARK SMILES IDX 17 13 22 14 28 15 19 16 18 17 29 18 21 19 20 20 16 21 23 23
REMARK SMILES IDX 30 25 31 26 32 27 33 28 3 29 4 30 5 31 6 32 7 33 11 34 8 35
REMARK SMILES IDX 10 36 9 37
REMARK H PARENT 16 22 23 24
ROOT
ATOM      1  C   UNL     1       2.949   3.678   1.807  1.00  0.00     0.147 C 
ATOM      2  N   UNL     1       3.000   2.340   1.230  1.00  0.00    -0.335 N 
ENDROOT
BRANCH   2   3
ATOM      3  C   UNL     1       1.736   1.552   1.351  1.00  0.00     0.127 C 
ATOM      4  C   UNL     1       1.932   0.079   1.749  1.00  0.00     0.032 C 
ATOM      5  C   UNL     1       0.783   1.777   0.135  1.00  0.00     0.209 C 
ATOM      6  C   UNL     1       0.591  -0.654   1.890  1.00  0.00     0.040 C 
ATOM      7  O   UNL     1       0.154   3.108   0.293  1.00  0.00    -0.483 OA
ATOM      8  C   UNL     1      -0.376   0.773   0.009  1.00  0.00     0.070 C 
ATOM      9  C   UNL     1      -0.162  -0.644   0.551  1.00  0.00     0.094 C 
ATOM     10  C   UNL     1      -1.030   2.835   0.937  1.00  0.00     0.165 A 
ATOM     11  C   UNL     1      -0.936   0.711  -1.431  1.00  0.00     0.034 C 
ATOM     12  C   UNL     1      -1.354   1.496   0.868  1.00  0.00     0.014 A 
ATOM     13  C   UNL     1      -1.578  -1.323   0.592  1.00  0.00     0.094 C 
ATOM     14  C   UNL     1      -1.833   3.705   1.639  1.00  0.00     0.158 A 
ATOM     15  C   UNL     1      -2.178  -0.188  -1.528  1.00  0.00     0.086 C 
ATOM     16  C   UNL     1      -2.421   0.932   1.545  1.00  0.00    -0.038 A 
ATOM     17  C   UNL     1      -2.575  -0.567   1.537  1.00  0.00     0.058 C 
ATOM     18  N   UNL     1      -2.004  -1.481  -0.840  1.00  0.00    -0.297 NA
ATOM     19  C   UNL     1      -2.955   3.188   2.300  1.00  0.00     0.050 A 
ATOM     20  C   UNL     1      -3.239   1.804   2.266  1.00  0.00     0.008 A 
BRANCH   9  21
ATOM     21  O   UNL     1       0.661  -1.387  -0.374  1.00  0.00    -0.387 OA
ATOM     22  H   UNL     1       0.032  -1.798  -1.003  1.00  0.00     0.211 HD
ENDBRANCH   9  21
BRANCH  14  23
ATOM     23  O   UNL     1      -1.515   5.026   1.703  1.00  0.00    -0.504 OA
ATOM     24  H   UNL     1      -2.154   5.481   2.272  1.00  0.00     0.293 HD
ENDBRANCH  14  23
BRANCH  18  25
ATOM     25  C   UNL     1      -3.200  -2.313  -1.029  1.00  0.00     0.088 C 
BRANCH  25  26
ATOM     26  C   UNL     1      -2.924  -3.739  -0.655  1.00  0.00     0.003 C 
ATOM     27  C   UNL     1      -4.068  -4.724  -0.616  1.00  0.00     0.005 C 
ATOM     28  C   UNL     1      -3.388  -4.316   0.661  1.00  0.00     0.005 C 
ENDBRANCH  25  26
ENDBRANCH  18  25
ENDBRANCH   2   3
BRANCH   2  29
ATOM     29  C   UNL     1       3.930   2.200   0.198  1.00  0.00     0.246 C 
ATOM     30  O   UNL     1       4.616   3.123  -0.237  1.00  0.00    -0.270 OA
BRANCH  29  31
ATOM     31  C   UNL     1       4.119   0.854  -0.374  1.00  0.00     0.072 C 
ATOM     32  C   UNL     1       3.932   0.663  -1.690  1.00  0.00     0.017 C 
BRANCH  32  33
ATOM     33  C   UNL     1       4.096  -0.581  -2.359  1.00  0.00     0.013 A 
ATOM     34  C   UNL     1       5.076  -1.520  -2.119  1.00  0.00     0.202 A 
ATOM     35  C   UNL     1       3.313  -1.090  -3.425  1.00  0.00     0.050 A 
ATOM     36  O   UNL     1       4.947  -2.568  -2.976  1.00  0.00    -0.472 OA
ATOM     37  C   UNL     1       3.872  -2.301  -3.763  1.00  0.00     0.195 A 
ENDBRANCH  32  33
ENDBRANCH  29  31
ENDBRANCH   2  29
TORSDOF 8
