REMARK SMILES C=C1CC[C@@]2(O)[C@H]3Cc4ccc(O)c5c4[C@@]2(CCN3CC2CC2)[C@H]1O5
REMARK SMILES IDX 12 1 14 2 25 3 24 4 2 5 1 6 3 7 4 8 5 9 7 10 8 11 9 12 10 13
REMARK SMILES IDX 11 14 15 15 16 16 17 17 18 18 19 19 13 20 6 22 20 24 21 25
REMARK SMILES IDX 22 26 23 27
REMARK H PARENT 13 21 6 23
ROOT
ATOM      1  C   UNL     1       3.586   1.990  -0.742  1.00  0.00     0.158 A 
ATOM      2  C   UNL     1       2.810   0.883  -1.000  1.00  0.00     0.166 A 
ATOM      3  O   UNL     1       3.168  -0.257  -1.686  1.00  0.00    -0.481 OA
ATOM      4  C   UNL     1       2.188  -1.247  -1.219  1.00  0.00     0.213 C 
ATOM      5  C   UNL     1       2.737  -1.995   0.005  1.00  0.00    -0.036 C 
ATOM      6  C   UNL     1       4.052  -2.113   0.262  1.00  0.00     0.012 C 
ATOM      7  C   UNL     1       1.718  -2.574   0.955  1.00  0.00     0.037 C 
ATOM      8  C   UNL     1       0.659  -1.537   1.348  1.00  0.00     0.042 C 
ATOM      9  C   UNL     1      -0.079  -0.998   0.108  1.00  0.00     0.095 C 
ATOM     10  C   UNL     1      -1.061   0.204   0.413  1.00  0.00     0.094 C 
ATOM     11  C   UNL     1      -0.315   1.416   1.061  1.00  0.00     0.058 C 
ATOM     12  C   UNL     1       0.999   1.724   0.388  1.00  0.00    -0.038 A 
ATOM     13  C   UNL     1       1.783   2.845   0.670  1.00  0.00     0.008 A 
ATOM     14  C   UNL     1       3.063   2.988   0.089  1.00  0.00     0.050 A 
ATOM     15  C   UNL     1       1.528   0.794  -0.489  1.00  0.00     0.015 A 
ATOM     16  C   UNL     1       0.876  -0.468  -0.967  1.00  0.00     0.072 C 
ATOM     17  C   UNL     1       0.104  -0.164  -2.278  1.00  0.00     0.035 C 
ATOM     18  C   UNL     1      -1.403   0.076  -2.065  1.00  0.00     0.086 C 
ATOM     19  N   UNL     1      -1.720   0.744  -0.809  1.00  0.00    -0.297 NA
ENDROOT
BRANCH   1  20
ATOM     20  O   UNL     1       4.840   2.081  -1.263  1.00  0.00    -0.504 OA
ATOM     21  H   UNL     1       5.230   2.925  -0.987  1.00  0.00     0.293 HD
ENDBRANCH   1  20
BRANCH   9  22
ATOM     22  O   UNL     1      -0.864  -2.111  -0.379  1.00  0.00    -0.387 OA
ATOM     23  H   UNL     1      -0.283  -2.730  -0.850  1.00  0.00     0.211 HD
ENDBRANCH   9  22
BRANCH  19  24
ATOM     24  C   UNL     1      -3.132   1.085  -0.644  1.00  0.00     0.088 C 
BRANCH  24  25
ATOM     25  C   UNL     1      -4.038  -0.087  -0.403  1.00  0.00     0.003 C 
ATOM     26  C   UNL     1      -4.528  -0.430   0.983  1.00  0.00     0.005 C 
ATOM     27  C   UNL     1      -5.478   0.158  -0.019  1.00  0.00     0.005 C 
ENDBRANCH  24  25
ENDBRANCH  19  24
TORSDOF 4
