REMARK SMILES C[C@]12CC[C@H]3[C@@H](CCC4=CC(=O)CC[C@@H]43)[C@@H]1CC[C@@H]2O
REMARK SMILES IDX 1 1 2 2 3 3 4 4 5 5 6 6 7 7 8 8 9 9 10 10 11 11 12 12 13 13
REMARK SMILES IDX 14 14 15 15 16 16 17 17 18 18 19 19 20 20
REMARK H PARENT 20 21
ROOT
ATOM      1  C   UNL     1      -2.692   0.294  -1.423  1.00  0.00     0.014 C 
ATOM      2  C   UNL     1      -2.324   0.475   0.073  1.00  0.00    -0.003 C 
ATOM      3  C   UNL     1      -1.568   1.800   0.246  1.00  0.00     0.010 C 
ATOM      4  C   UNL     1      -0.163   1.740  -0.384  1.00  0.00     0.005 C 
ATOM      5  C   UNL     1       0.665   0.532   0.111  1.00  0.00    -0.000 C 
ATOM      6  C   UNL     1      -0.120  -0.810  -0.045  1.00  0.00    -0.003 C 
ATOM      7  C   UNL     1       0.700  -2.036   0.409  1.00  0.00     0.008 C 
ATOM      8  C   UNL     1       2.080  -1.699   0.969  1.00  0.00     0.032 C 
ATOM      9  C   UNL     1       2.845  -0.705   0.128  1.00  0.00    -0.063 C 
ATOM     10  C   UNL     1       4.187  -0.746   0.076  1.00  0.00     0.046 C 
ATOM     11  C   UNL     1       4.957   0.272  -0.677  1.00  0.00     0.155 C 
ATOM     12  O   UNL     1       6.176   0.151  -0.777  1.00  0.00    -0.295 OA
ATOM     13  C   UNL     1       4.208   1.407  -1.337  1.00  0.00     0.081 C 
ATOM     14  C   UNL     1       2.858   1.664  -0.674  1.00  0.00     0.016 C 
ATOM     15  C   UNL     1       2.038   0.370  -0.583  1.00  0.00     0.019 C 
ATOM     16  C   UNL     1      -1.466  -0.664   0.670  1.00  0.00     0.001 C 
ATOM     17  C   UNL     1      -2.433  -1.845   0.716  1.00  0.00     0.007 C 
ATOM     18  C   UNL     1      -3.794  -1.201   1.044  1.00  0.00     0.032 C 
ATOM     19  C   UNL     1      -3.578   0.324   0.958  1.00  0.00     0.120 C 
ENDROOT
BRANCH  19  20
ATOM     20  O   UNL     1      -4.717   1.003   0.468  1.00  0.00    -0.393 OA
ATOM     21  H   UNL     1      -5.044   0.537  -0.319  1.00  0.00     0.210 HD
ENDBRANCH  19  20
TORSDOF 1
