REMARK SMILES OC(CNCC(O)C1CCc2cc(F)ccc2O1)C1CCc2cc(F)ccc2O1
REMARK SMILES IDX 4 1 3 3 2 4 1 5 19 7 20 8 29 9 21 10 28 11 22 12 27 13 23 14
REMARK SMILES IDX 26 15 24 16 25 17 5 18 6 19 7 20 8 22 9 23 18 24 10 25 17 26
REMARK SMILES IDX 11 27 16 28 12 29 15 30 13 31 14 32
REMARK H PARENT 4 2 1 6 7 21
ROOT
ATOM      1  N   UNL     1      -0.097  -0.358  -1.309  1.00  0.00    -0.311 NA
ATOM      2  H   UNL     1       0.202  -0.895  -2.122  1.00  0.00     0.122 HD
ENDROOT
BRANCH   1   3
ATOM      3  C   UNL     1      -1.142  -1.094  -0.589  1.00  0.00     0.116 C 
BRANCH   3   4
ATOM      4  C   UNL     1      -2.480  -1.117  -1.369  1.00  0.00     0.169 C 
BRANCH   4   5
ATOM      5  O   UNL     1      -3.360  -2.082  -0.779  1.00  0.00    -0.388 OA
ATOM      6  H   UNL     1      -2.851  -2.893  -0.610  1.00  0.00     0.211 HD
ENDBRANCH   4   5
BRANCH   4   7
ATOM      7  C   UNL     1      -3.140   0.286  -1.454  1.00  0.00     0.203 C 
ATOM      8  C   UNL     1      -4.424   0.341  -2.287  1.00  0.00     0.053 C 
ATOM      9  O   UNL     1      -3.303   0.882  -0.155  1.00  0.00    -0.487 OA
ATOM     10  C   UNL     1      -5.612  -0.272  -1.564  1.00  0.00     0.043 C 
ATOM     11  C   UNL     1      -4.493   0.682   0.484  1.00  0.00     0.123 A 
ATOM     12  C   UNL     1      -5.633   0.151  -0.127  1.00  0.00    -0.003 A 
ATOM     13  C   UNL     1      -4.527   1.072   1.826  1.00  0.00     0.050 A 
ATOM     14  C   UNL     1      -6.799  -0.016   0.634  1.00  0.00     0.046 A 
ATOM     15  C   UNL     1      -5.693   0.914   2.574  1.00  0.00     0.043 A 
ATOM     16  C   UNL     1      -6.818   0.368   1.971  1.00  0.00     0.123 A 
ATOM     17  F   UNL     1      -7.939   0.209   2.686  1.00  0.00    -0.207 F 
ENDBRANCH   4   7
ENDBRANCH   3   4
ENDBRANCH   1   3
BRANCH   1  18
ATOM     18  C   UNL     1       1.073  -0.058  -0.462  1.00  0.00     0.116 C 
BRANCH  18  19
ATOM     19  C   UNL     1       2.034  -1.249  -0.214  1.00  0.00     0.169 C 
BRANCH  19  20
ATOM     20  O   UNL     1       1.406  -2.227   0.625  1.00  0.00    -0.388 OA
ATOM     21  H   UNL     1       1.970  -3.020   0.620  1.00  0.00     0.211 HD
ENDBRANCH  19  20
BRANCH  19  22
ATOM     22  C   UNL     1       3.379  -0.815   0.417  1.00  0.00     0.203 C 
ATOM     23  C   UNL     1       3.214  -0.091   1.756  1.00  0.00     0.053 C 
ATOM     24  O   UNL     1       4.083  -0.001  -0.534  1.00  0.00    -0.487 OA
ATOM     25  C   UNL     1       4.594   0.160   2.349  1.00  0.00     0.043 C 
ATOM     26  C   UNL     1       5.224   0.588  -0.059  1.00  0.00     0.123 A 
ATOM     27  C   UNL     1       5.524   0.705   1.305  1.00  0.00    -0.003 A 
ATOM     28  C   UNL     1       6.086   1.115  -1.023  1.00  0.00     0.050 A 
ATOM     29  C   UNL     1       6.723   1.321   1.687  1.00  0.00     0.046 A 
ATOM     30  C   UNL     1       7.272   1.737  -0.634  1.00  0.00     0.043 A 
ATOM     31  C   UNL     1       7.581   1.830   0.717  1.00  0.00     0.123 A 
ATOM     32  F   UNL     1       8.723   2.422   1.093  1.00  0.00    -0.207 F 
ENDBRANCH  19  22
ENDBRANCH  18  19
ENDBRANCH   1  18
TORSDOF 8
