REMARK SMILES COc1nc(N)nc2c1ncn2[C@@H]1O[C@H](CO)[C@@H](O)[C@@H]1O
REMARK SMILES IDX 13 1 14 2 15 3 18 4 20 5 12 6 3 7 9 8 4 9 10 10 8 11 5 12
REMARK SMILES IDX 11 13 7 14 2 15 1 16 6 17 21 20 16 22 17 23 19 25
REMARK H PARENT 6 18 6 19 21 21 17 24 19 26
ROOT
ATOM      1  C   UNL     1      -1.325   1.376  -0.755  1.00  0.00     0.253 C 
ATOM      2  O   UNL     1      -1.876   1.055   0.539  1.00  0.00    -0.347 OA
ATOM      3  C   UNL     1      -2.952   0.119   0.340  1.00  0.00     0.178 C 
ATOM      4  C   UNL     1      -3.269   0.107  -1.161  1.00  0.00     0.179 C 
ATOM      5  C   UNL     1      -1.926   0.417  -1.796  1.00  0.00     0.195 C 
ENDROOT
BRANCH   1   6
ATOM      6  N   UNL     1       0.122   1.406  -0.711  1.00  0.00    -0.285 N 
ATOM      7  C   UNL     1       3.303   0.382   0.287  1.00  0.00     0.246 A 
ATOM      8  C   UNL     1       2.244   1.041  -0.342  1.00  0.00     0.170 A 
ATOM      9  N   UNL     1       3.040  -0.576   1.213  1.00  0.00    -0.176 NA
ATOM     10  N   UNL     1       2.180   2.041  -1.290  1.00  0.00    -0.229 NA
ATOM     11  C   UNL     1       0.973   0.637   0.037  1.00  0.00     0.171 A 
ATOM     12  C   UNL     1       1.760  -0.873   1.480  1.00  0.00     0.225 A 
ATOM     13  C   UNL     1       0.894   2.233  -1.488  1.00  0.00     0.204 A 
ATOM     14  N   UNL     1       0.672  -0.308   0.943  1.00  0.00    -0.193 NA
BRANCH   7  15
ATOM     15  O   UNL     1       4.609   0.717  -0.016  1.00  0.00    -0.479 OA
ATOM     16  C   UNL     1       5.563  -0.125   0.620  1.00  0.00     0.280 C 
ENDBRANCH   7  15
BRANCH  12  17
ATOM     17  N   UNL     1       1.543  -1.826   2.459  1.00  0.00    -0.368 N 
ATOM     18  H   UNL     1       0.655  -1.641   2.905  1.00  0.00     0.159 HD
ATOM     19  H   UNL     1       2.355  -1.868   3.060  1.00  0.00     0.159 HD
ENDBRANCH  12  17
ENDBRANCH   1   6
BRANCH   5  20
ATOM     20  O   UNL     1      -1.175  -0.784  -1.973  1.00  0.00    -0.386 OA
ATOM     21  H   UNL     1      -1.606  -1.307  -2.672  1.00  0.00     0.211 HD
ENDBRANCH   5  20
BRANCH   3  22
ATOM     22  C   UNL     1      -2.538  -1.253   0.879  1.00  0.00     0.191 C 
BRANCH  22  23
ATOM     23  O   UNL     1      -3.617  -2.175   0.754  1.00  0.00    -0.394 OA
ATOM     24  H   UNL     1      -3.298  -3.019   1.121  1.00  0.00     0.210 HD
ENDBRANCH  22  23
ENDBRANCH   3  22
BRANCH   4  25
ATOM     25  O   UNL     1      -4.173   1.170  -1.493  1.00  0.00    -0.387 OA
ATOM     26  H   UNL     1      -5.018   0.974  -1.048  1.00  0.00     0.211 HD
ENDBRANCH   4  25
TORSDOF 7
