REMARK SMILES CCCCCOc1ccccc1/C(=C\SC)n1ccnc1
REMARK SMILES IDX 5 1 4 2 3 3 2 4 1 5 6 6 7 7 12 8 8 9 11 10 9 11 10 12 13 13
REMARK SMILES IDX 14 14 17 15 18 16 21 17 19 18 20 19 15 20 16 21
REMARK H PARENT
ROOT
ATOM      1  C   UNL     1       1.280   0.919  -0.136  1.00  0.00     0.229 C 
ENDROOT
BRANCH   1   2
ATOM      2  C   UNL     1       2.310  -0.106   0.342  1.00  0.00     0.042 C 
BRANCH   2   3
ATOM      3  C   UNL     1       3.269   0.494   1.371  1.00  0.00     0.003 C 
BRANCH   3   4
ATOM      4  C   UNL     1       4.301  -0.511   1.890  1.00  0.00    -0.003 C 
ATOM      5  C   UNL     1       5.322  -0.918   0.836  1.00  0.00     0.004 C 
ENDBRANCH   3   4
ENDBRANCH   2   3
ENDBRANCH   1   2
BRANCH   1   6
ATOM      6  O   UNL     1       0.414   0.255  -1.063  1.00  0.00    -0.493 OA
BRANCH   6   7
ATOM      7  C   UNL     1      -0.655   1.047  -1.392  1.00  0.00     0.128 A 
ATOM      8  C   UNL     1      -1.933   0.722  -0.911  1.00  0.00     0.041 A 
ATOM      9  C   UNL     1      -0.477   2.105  -2.283  1.00  0.00     0.047 A 
ATOM     10  C   UNL     1      -3.027   1.500  -1.320  1.00  0.00     0.014 A 
ATOM     11  C   UNL     1      -1.572   2.872  -2.677  1.00  0.00     0.004 A 
ATOM     12  C   UNL     1      -2.844   2.572  -2.195  1.00  0.00     0.001 A 
BRANCH   8  13
ATOM     13  C   UNL     1      -2.147  -0.435   0.002  1.00  0.00     0.064 C 
ATOM     14  C   UNL     1      -2.270  -0.216   1.334  1.00  0.00     0.067 C 
BRANCH  13  15
ATOM     15  N   UNL     1      -2.200  -1.736  -0.564  1.00  0.00    -0.305 N 
ATOM     16  C   UNL     1      -2.367  -2.953   0.082  1.00  0.00     0.113 A 
ATOM     17  C   UNL     1      -2.107  -2.077  -1.907  1.00  0.00     0.204 A 
ATOM     18  C   UNL     1      -2.379  -3.924  -0.892  1.00  0.00     0.131 A 
ATOM     19  N   UNL     1      -2.229  -3.368  -2.128  1.00  0.00    -0.245 NA
ENDBRANCH  13  15
BRANCH  14  20
ATOM     20  S   UNL     1      -2.202   1.336   2.120  1.00  0.00    -0.135 SA
ATOM     21  C   UNL     1      -2.356   0.846   3.852  1.00  0.00     0.090 C 
ENDBRANCH  14  20
ENDBRANCH   8  13
ENDBRANCH   6   7
ENDBRANCH   1   6
TORSDOF 8
