REMARK SMILES CN1CC[C@]23c4c5ccc(OC(=O)c6cccnc6)c4O[C@H]2[C@@H](OC(=O)c2cccnc2)C=C[C@H]3[C@H]1C5
REMARK SMILES IDX 1 1 2 2 3 3 4 4 5 5 22 6 21 7 20 8 6 9 7 10 37 11 36 12
REMARK SMILES IDX 35 13 34 14 33 15 23 16 8 17 9 18 10 19 24 20 25 21 26 22
REMARK SMILES IDX 27 23 32 24 28 25 31 26 29 27 30 28 11 29 12 30 13 31 14 32
REMARK SMILES IDX 19 33 15 34 18 35 16 36 17 37
REMARK H PARENT
ROOT
ATOM      1  C   UNL     1       0.481   6.480   0.519  1.00  0.00     0.105 C 
ATOM      2  N   UNL     1      -0.237   5.251   0.191  1.00  0.00    -0.302 NA
ATOM      3  C   UNL     1       0.322   4.613  -1.006  1.00  0.00     0.085 C 
ATOM      4  C   UNL     1      -0.450   3.346  -1.402  1.00  0.00     0.032 C 
ATOM      5  C   UNL     1      -0.720   2.416  -0.202  1.00  0.00     0.049 C 
ATOM      6  C   UNL     1      -1.361   1.076  -0.626  1.00  0.00     0.229 C 
ATOM      7  O   UNL     1      -0.257   0.151  -0.956  1.00  0.00    -0.481 OA
ATOM      8  C   UNL     1       0.793   0.605  -0.207  1.00  0.00     0.166 A 
ATOM      9  C   UNL     1       0.570   1.861   0.307  1.00  0.00     0.012 A 
ATOM     10  C   UNL     1       1.419   2.460   1.223  1.00  0.00    -0.039 A 
ATOM     11  C   UNL     1       0.968   3.727   1.902  1.00  0.00     0.055 C 
ATOM     12  C   UNL     1      -0.375   4.326   1.348  1.00  0.00     0.068 C 
ATOM     13  C   UNL     1      -1.394   3.216   0.922  1.00  0.00     0.044 C 
ATOM     14  C   UNL     1      -1.876   2.327   2.041  1.00  0.00    -0.021 C 
ATOM     15  C   UNL     1      -2.286   1.072   1.806  1.00  0.00     0.017 C 
ATOM     16  C   UNL     1      -2.335   0.457   0.427  1.00  0.00     0.241 C 
ATOM     17  C   UNL     1       2.605   1.787   1.534  1.00  0.00     0.008 A 
ATOM     18  C   UNL     1       2.890   0.539   0.944  1.00  0.00     0.051 A 
ATOM     19  C   UNL     1       1.959  -0.062   0.089  1.00  0.00     0.173 A 
ENDROOT
BRANCH  16  20
ATOM     20  O   UNL     1      -2.132  -0.957   0.595  1.00  0.00    -0.450 OA
BRANCH  20  21
ATOM     21  C   UNL     1      -2.568  -1.730  -0.426  1.00  0.00     0.340 C 
ATOM     22  O   UNL     1      -3.138  -1.337  -1.431  1.00  0.00    -0.246 OA
BRANCH  21  23
ATOM     23  C   UNL     1      -2.272  -3.152  -0.153  1.00  0.00     0.078 A 
ATOM     24  C   UNL     1      -2.646  -4.102  -1.095  1.00  0.00     0.126 A 
ATOM     25  C   UNL     1      -1.643  -3.603   1.011  1.00  0.00     0.019 A 
ATOM     26  N   UNL     1      -2.441  -5.436  -0.949  1.00  0.00    -0.264 NA
ATOM     27  C   UNL     1      -1.422  -4.968   1.186  1.00  0.00     0.021 A 
ATOM     28  C   UNL     1      -1.834  -5.836   0.188  1.00  0.00     0.111 A 
ENDBRANCH  21  23
ENDBRANCH  20  21
ENDBRANCH  16  20
BRANCH  19  29
ATOM     29  O   UNL     1       2.229  -1.285  -0.510  1.00  0.00    -0.419 OA
BRANCH  29  30
ATOM     30  C   UNL     1       1.854  -2.359   0.267  1.00  0.00     0.345 C 
ATOM     31  O   UNL     1       1.476  -2.352   1.430  1.00  0.00    -0.246 OA
BRANCH  30  32
ATOM     32  C   UNL     1       2.027  -3.603  -0.512  1.00  0.00     0.078 A 
ATOM     33  C   UNL     1       2.099  -3.612  -1.899  1.00  0.00     0.126 A 
ATOM     34  C   UNL     1       2.101  -4.829   0.154  1.00  0.00     0.019 A 
ATOM     35  N   UNL     1       2.252  -4.739  -2.638  1.00  0.00    -0.264 NA
ATOM     36  C   UNL     1       2.248  -6.003  -0.582  1.00  0.00     0.021 A 
ATOM     37  C   UNL     1       2.317  -5.908  -1.963  1.00  0.00     0.111 A 
ENDBRANCH  30  32
ENDBRANCH  29  30
ENDBRANCH  19  29
TORSDOF 6
