REMARK SMILES CC(C)NCC(O)c1ccc([N+](=O)[O-])cc1
REMARK SMILES IDX 5 1 4 2 2 4 1 5 3 6 6 7 7 8 8 10 9 11 16 12 10 13 15 14
REMARK SMILES IDX 11 15 12 16 13 17 14 18
REMARK H PARENT 4 3 7 9
ROOT
ATOM      1  C   UNL     1      -0.881  -0.644   0.277  1.00  0.00     0.117 C 
ENDROOT
BRANCH   1   2
ATOM      2  N   UNL     1      -2.177  -1.148  -0.216  1.00  0.00    -0.312 NA
ATOM      3  H   UNL     1      -2.630  -1.665   0.538  1.00  0.00     0.123 HD
BRANCH   2   4
ATOM      4  C   UNL     1      -3.101  -0.120  -0.712  1.00  0.00     0.047 C 
ATOM      5  C   UNL     1      -3.572   0.837   0.385  1.00  0.00     0.024 C 
ATOM      6  C   UNL     1      -4.310  -0.842  -1.314  1.00  0.00     0.024 C 
ENDBRANCH   2   4
ENDBRANCH   1   2
BRANCH   1   7
ATOM      7  C   UNL     1      -0.006   0.107  -0.760  1.00  0.00     0.158 C 
BRANCH   7   8
ATOM      8  O   UNL     1      -0.439   1.465  -0.899  1.00  0.00    -0.387 OA
ATOM      9  H   UNL     1       0.225   1.914  -1.449  1.00  0.00     0.211 HD
ENDBRANCH   7   8
BRANCH   7  10
ATOM     10  C   UNL     1       1.458   0.117  -0.355  1.00  0.00    -0.018 A 
ATOM     11  C   UNL     1       1.906   0.917   0.711  1.00  0.00     0.013 A 
ATOM     12  C   UNL     1       2.382  -0.694  -1.034  1.00  0.00     0.013 A 
ATOM     13  C   UNL     1       3.251   0.915   1.089  1.00  0.00     0.086 A 
ATOM     14  C   UNL     1       3.729  -0.702  -0.663  1.00  0.00     0.086 A 
ATOM     15  C   UNL     1       4.159   0.104   0.398  1.00  0.00     0.269 A 
BRANCH  15  16
ATOM     16  N   UNL     1       5.574   0.097   0.791  1.00  0.00     0.062 N 
ATOM     17  O   UNL     1       6.347  -0.629   0.150  1.00  0.00    -0.258 OA
ATOM     18  O   UNL     1       5.913   0.819   1.740  1.00  0.00    -0.258 OA
ENDBRANCH  15  16
ENDBRANCH   7  10
ENDBRANCH   1   7
TORSDOF 6
