REMARK SMILES O=C1CN(/N=C/c2ccc([N+](=O)[O-])o2)C(=O)N1CN1CCOCC1
REMARK SMILES IDX 6 1 5 2 7 3 10 4 9 5 14 6 8 7 11 8 12 9 13 10 4 11 3 12
REMARK SMILES IDX 15 13 2 14 17 15 16 16 1 17 18 18 19 19 20 20 24 21 21 22
REMARK SMILES IDX 23 23 22 24
REMARK H PARENT
ROOT
ATOM      1  C   UNL     1       2.874  -0.292   0.426  1.00  0.00     0.181 C 
ATOM      2  N   UNL     1       2.260  -1.422   0.266  1.00  0.00    -0.173 NA
ENDROOT
BRANCH   1   3
ATOM      3  C   UNL     1       4.289  -0.277   0.683  1.00  0.00     0.154 A 
ATOM      4  C   UNL     1       6.224   0.674   1.038  1.00  0.00     0.433 A 
ATOM      5  C   UNL     1       6.471  -0.677   1.079  1.00  0.00     0.134 A 
ATOM      6  O   UNL     1       4.911   0.938   0.799  1.00  0.00    -0.400 OA
ATOM      7  C   UNL     1       5.215  -1.294   0.847  1.00  0.00     0.060 A 
BRANCH   4   8
ATOM      8  N   UNL     1       7.085   1.803   1.197  1.00  0.00     0.102 N 
ATOM      9  O   UNL     1       6.587   2.931   1.096  1.00  0.00    -0.256 OA
ATOM     10  O   UNL     1       8.277   1.554   1.424  1.00  0.00    -0.256 OA
ENDBRANCH   4   8
ENDBRANCH   1   3
BRANCH   2  11
ATOM     11  N   UNL     1       0.905  -1.403   0.063  1.00  0.00    -0.205 N 
ATOM     12  C   UNL     1       0.238  -2.607  -0.360  1.00  0.00     0.250 C 
ATOM     13  C   UNL     1      -0.016  -0.457   0.557  1.00  0.00     0.348 C 
ATOM     14  C   UNL     1      -1.210  -2.212  -0.174  1.00  0.00     0.253 C 
ATOM     15  N   UNL     1      -1.272  -0.931   0.285  1.00  0.00    -0.247 N 
ATOM     16  O   UNL     1       0.250   0.568   1.169  1.00  0.00    -0.246 OA
ATOM     17  O   UNL     1      -2.159  -2.956  -0.386  1.00  0.00    -0.272 OA
BRANCH  15  18
ATOM     18  C   UNL     1      -2.484  -0.254   0.664  1.00  0.00     0.218 C 
BRANCH  18  19
ATOM     19  N   UNL     1      -2.834   0.730  -0.365  1.00  0.00    -0.281 NA
ATOM     20  C   UNL     1      -3.723   1.765   0.210  1.00  0.00     0.115 C 
ATOM     21  C   UNL     1      -3.451   0.130  -1.568  1.00  0.00     0.115 C 
ATOM     22  C   UNL     1      -4.565   2.464  -0.866  1.00  0.00     0.175 C 
ATOM     23  C   UNL     1      -4.985   0.218  -1.581  1.00  0.00     0.175 C 
ATOM     24  O   UNL     1      -5.474   1.564  -1.515  1.00  0.00    -0.379 OA
ENDBRANCH  18  19
ENDBRANCH  15  18
ENDBRANCH   2  11
TORSDOF 5
