REMARK SMILES CCN(CC)C(=O)c1cccnc1
REMARK SMILES IDX 3 1 6 2 7 3 2 4 1 5 4 6 5 7 8 8 9 9 13 10 10 11 12 12 11 13
REMARK H PARENT
ROOT
ATOM      1  N   UNL     1      -0.973  -0.210  -0.510  1.00  0.00    -0.339 N 
ATOM      2  C   UNL     1       0.221  -0.916  -0.674  1.00  0.00     0.255 C 
ATOM      3  O   UNL     1       0.282  -2.054  -1.134  1.00  0.00    -0.269 OA
ENDROOT
BRANCH   1   4
ATOM      4  C   UNL     1      -2.219  -0.915  -0.821  1.00  0.00     0.116 C 
ATOM      5  C   UNL     1      -2.647  -1.850   0.301  1.00  0.00     0.027 C 
ENDBRANCH   1   4
BRANCH   1   6
ATOM      6  C   UNL     1      -1.067   1.220  -0.192  1.00  0.00     0.116 C 
ATOM      7  C   UNL     1      -1.686   1.482   1.171  1.00  0.00     0.027 C 
ENDBRANCH   1   6
BRANCH   2   8
ATOM      8  C   UNL     1       1.490  -0.285  -0.287  1.00  0.00     0.058 A 
ATOM      9  C   UNL     1       2.482  -0.056  -1.239  1.00  0.00     0.017 A 
ATOM     10  C   UNL     1       1.751   0.030   1.038  1.00  0.00     0.124 A 
ATOM     11  C   UNL     1       3.682   0.522  -0.834  1.00  0.00     0.021 A 
ATOM     12  N   UNL     1       2.905   0.604   1.456  1.00  0.00    -0.264 NA
ATOM     13  C   UNL     1       3.843   0.835   0.509  1.00  0.00     0.111 A 
ENDBRANCH   2   8
TORSDOF 3
