REMARK SMILES CS(=O)(=O)Nc1ccc([N+](=O)[O-])cc1Oc1ccccc1
REMARK SMILES IDX 6 1 14 2 13 3 9 4 8 5 7 6 5 7 2 9 3 10 4 11 1 12 15 13 16 14
REMARK SMILES IDX 17 15 21 16 18 17 20 18 19 19 10 20 11 21 12 22
REMARK H PARENT 5 8
ROOT
ATOM      1  C   UNL     1      -1.394   0.047   0.125  1.00  0.00     0.092 A 
ATOM      2  C   UNL     1      -0.097  -0.377  -0.201  1.00  0.00     0.158 A 
ATOM      3  C   UNL     1       0.258  -1.725  -0.087  1.00  0.00     0.134 A 
ATOM      4  C   UNL     1      -0.691  -2.640   0.385  1.00  0.00     0.273 A 
ATOM      5  C   UNL     1      -1.986  -2.219   0.728  1.00  0.00     0.088 A 
ATOM      6  C   UNL     1      -2.336  -0.873   0.589  1.00  0.00     0.038 A 
ENDROOT
BRANCH   1   7
ATOM      7  N   UNL     1      -1.776   1.413  -0.083  1.00  0.00    -0.280 N 
ATOM      8  H   UNL     1      -0.970   2.048  -0.082  1.00  0.00     0.180 HD
BRANCH   7   9
ATOM      9  S   UNL     1      -2.642   1.727  -1.514  1.00  0.00     0.229 S 
ATOM     10  O   UNL     1      -1.999   2.875  -2.116  1.00  0.00    -0.207 OA
ATOM     11  O   UNL     1      -2.865   0.502  -2.248  1.00  0.00    -0.207 OA
ATOM     12  C   UNL     1      -4.193   2.270  -0.835  1.00  0.00     0.183 C 
ENDBRANCH   7   9
ENDBRANCH   1   7
BRANCH   2  13
ATOM     13  O   UNL     1       0.779   0.565  -0.697  1.00  0.00    -0.455 OA
BRANCH  13  14
ATOM     14  C   UNL     1       2.034   0.614  -0.135  1.00  0.00     0.127 A 
ATOM     15  C   UNL     1       3.113   0.724  -1.012  1.00  0.00     0.047 A 
ATOM     16  C   UNL     1       2.245   0.627   1.246  1.00  0.00     0.047 A 
ATOM     17  C   UNL     1       4.412   0.807  -0.509  1.00  0.00     0.004 A 
ATOM     18  C   UNL     1       3.545   0.710   1.746  1.00  0.00     0.004 A 
ATOM     19  C   UNL     1       4.627   0.796   0.869  1.00  0.00     0.000 A 
ENDBRANCH  13  14
ENDBRANCH   2  13
BRANCH   4  20
ATOM     20  N   UNL     1      -0.330  -4.057   0.519  1.00  0.00     0.062 N 
ATOM     21  O   UNL     1      -1.188  -4.828   0.972  1.00  0.00    -0.258 OA
ATOM     22  O   UNL     1       0.812  -4.396   0.180  1.00  0.00    -0.258 OA
ENDBRANCH   4  20
TORSDOF 5
