REMARK SMILES COCCOC(=O)C1=C(C)NC(C)=C(C(=O)OC(C)C)C1c1cccc([N+](=O)[O-])c1
REMARK SMILES IDX 6 1 7 2 5 3 4 4 3 5 2 6 1 7 8 8 9 9 21 10 11 11 14 12 12 13
REMARK SMILES IDX 10 14 13 16 22 17 30 18 23 19 26 20 24 21 25 22 27 23 28 24
REMARK SMILES IDX 29 25 15 26 16 27 17 28 18 29 19 30 20 31
REMARK H PARENT 11 15
ROOT
ATOM      1  C   UNL     1       1.588   1.424  -1.442  1.00  0.00     0.336 C 
ATOM      2  O   UNL     1       1.639   1.232  -2.647  1.00  0.00    -0.246 OA
ENDROOT
BRANCH   1   3
ATOM      3  O   UNL     1       1.511   2.626  -0.824  1.00  0.00    -0.460 OA
BRANCH   3   4
ATOM      4  C   UNL     1       1.597   3.754  -1.709  1.00  0.00     0.261 C 
BRANCH   4   5
ATOM      5  C   UNL     1       1.671   5.025  -0.869  1.00  0.00     0.201 C 
BRANCH   5   6
ATOM      6  O   UNL     1       2.946   5.086  -0.218  1.00  0.00    -0.381 OA
ATOM      7  C   UNL     1       3.053   6.232   0.615  1.00  0.00     0.195 C 
ENDBRANCH   5   6
ENDBRANCH   4   5
ENDBRANCH   3   4
ENDBRANCH   1   3
BRANCH   1   8
ATOM      8  C   UNL     1       1.506   0.337  -0.444  1.00  0.00     0.068 C 
ATOM      9  C   UNL     1       2.288   0.272   0.657  1.00  0.00     0.023 C 
ATOM     10  C   UNL     1       0.481  -0.744  -0.763  1.00  0.00     0.098 C 
ATOM     11  N   UNL     1       2.153  -0.800   1.527  1.00  0.00    -0.362 N 
ATOM     12  C   UNL     1       0.529  -1.911   0.215  1.00  0.00     0.068 C 
ATOM     13  C   UNL     1       1.342  -1.901   1.295  1.00  0.00     0.023 C 
ATOM     14  C   UNL     1       3.364   1.270   1.004  1.00  0.00     0.065 C 
ATOM     15  H   UNL     1       2.799  -0.850   2.312  1.00  0.00     0.166 HD
ATOM     16  C   UNL     1       1.479  -3.039   2.274  1.00  0.00     0.065 C 
BRANCH  10  17
ATOM     17  C   UNL     1      -0.933  -0.154  -0.833  1.00  0.00    -0.029 A 
ATOM     18  C   UNL     1      -1.538   0.428   0.297  1.00  0.00     0.090 A 
ATOM     19  C   UNL     1      -1.649  -0.193  -2.041  1.00  0.00     0.005 A 
ATOM     20  C   UNL     1      -2.835   0.952   0.204  1.00  0.00     0.269 A 
ATOM     21  C   UNL     1      -2.940   0.332  -2.126  1.00  0.00     0.007 A 
ATOM     22  C   UNL     1      -3.539   0.906  -1.005  1.00  0.00     0.085 A 
BRANCH  20  23
ATOM     23  N   UNL     1      -3.461   1.556   1.387  1.00  0.00     0.062 N 
ATOM     24  O   UNL     1      -2.804   1.590   2.437  1.00  0.00    -0.258 OA
ATOM     25  O   UNL     1      -4.612   2.001   1.266  1.00  0.00    -0.258 OA
ENDBRANCH  20  23
ENDBRANCH  10  17
BRANCH  12  26
ATOM     26  C   UNL     1      -0.357  -3.040  -0.129  1.00  0.00     0.337 C 
ATOM     27  O   UNL     1      -0.369  -3.577  -1.225  1.00  0.00    -0.246 OA
BRANCH  26  28
ATOM     28  O   UNL     1      -1.183  -3.305   0.913  1.00  0.00    -0.460 OA
BRANCH  28  29
ATOM     29  C   UNL     1      -2.174  -4.324   0.689  1.00  0.00     0.170 C 
ATOM     30  C   UNL     1      -1.568  -5.693   0.975  1.00  0.00     0.052 C 
ATOM     31  C   UNL     1      -3.333  -4.036   1.636  1.00  0.00     0.052 C 
ENDBRANCH  28  29
ENDBRANCH  26  28
ENDBRANCH  12  26
ENDBRANCH   1   8
TORSDOF 10
