REMARK SMILES O=C1CCCC(=O)C1C(=O)c1ccc(C(F)(F)F)cc1[N+](=O)[O-]
REMARK SMILES IDX 20 1 11 2 12 3 13 4 14 5 19 6 21 7 22 8 23 9 9 10 10 11 8 12
REMARK SMILES IDX 2 13 6 14 1 15 3 16 5 17 7 18 4 19 15 20 16 21 17 22 18 23
REMARK H PARENT
ROOT
ATOM      1  C   UNL     1       1.790   0.529  -0.906  1.00  0.00     0.280 A 
ATOM      2  C   UNL     1       0.935  -0.376  -0.272  1.00  0.00     0.096 A 
ATOM      3  C   UNL     1       1.432  -1.152   0.784  1.00  0.00     0.020 A 
ATOM      4  C   UNL     1       2.753  -0.996   1.219  1.00  0.00     0.014 A 
ATOM      5  C   UNL     1       3.605  -0.062   0.608  1.00  0.00     0.062 A 
ATOM      6  C   UNL     1       3.117   0.694  -0.471  1.00  0.00     0.099 A 
ENDROOT
BRANCH   1   7
ATOM      7  N   UNL     1       1.359   1.287  -2.068  1.00  0.00     0.063 N 
ATOM      8  O   UNL     1       0.660   0.699  -2.900  1.00  0.00    -0.258 OA
ATOM      9  O   UNL     1       1.724   2.466  -2.138  1.00  0.00    -0.258 OA
ENDBRANCH   1   7
BRANCH   2  10
ATOM     10  C   UNL     1      -0.490  -0.583  -0.627  1.00  0.00     0.187 C 
ATOM     11  O   UNL     1      -0.848  -1.712  -0.950  1.00  0.00    -0.293 OA
BRANCH  10  12
ATOM     12  C   UNL     1      -1.461   0.554  -0.409  1.00  0.00     0.195 C 
ATOM     13  C   UNL     1      -1.914   0.577   1.031  1.00  0.00     0.151 C 
ATOM     14  C   UNL     1      -2.629   0.501  -1.363  1.00  0.00     0.151 C 
ATOM     15  O   UNL     1      -1.134   0.898   1.930  1.00  0.00    -0.298 OA
ATOM     16  C   UNL     1      -3.344   0.192   1.335  1.00  0.00     0.077 C 
ATOM     17  C   UNL     1      -3.774  -0.445  -1.062  1.00  0.00     0.077 C 
ATOM     18  O   UNL     1      -2.649   1.200  -2.377  1.00  0.00    -0.298 OA
ATOM     19  C   UNL     1      -3.787  -0.912   0.389  1.00  0.00     0.016 C 
ENDBRANCH  10  12
ENDBRANCH   2  10
BRANCH   5  20
ATOM     20  C   UNL     1       5.038   0.093   1.067  1.00  0.00     0.416 C 
ATOM     21  F   UNL     1       5.231  -0.288   2.359  1.00  0.00    -0.166 F 
ATOM     22  F   UNL     1       5.480   1.377   0.982  1.00  0.00    -0.166 F 
ATOM     23  F   UNL     1       5.896  -0.652   0.319  1.00  0.00    -0.166 F 
ENDBRANCH   5  20
TORSDOF 4
