REMARK SMILES NC(=O)N/N=C/c1ccc([N+](=O)[O-])o1
REMARK SMILES IDX 7 1 8 2 9 3 10 4 14 5 6 6 5 7 4 8 1 9 2 10 3 11 11 15 12 16
REMARK SMILES IDX 13 17
REMARK H PARENT 1 12 1 13 4 14
ROOT
ATOM      1  C   UNL     1      -0.909   0.369  -0.057  1.00  0.00     0.154 A 
ATOM      2  C   UNL     1      -1.478   1.504  -0.611  1.00  0.00     0.060 A 
ATOM      3  C   UNL     1      -2.879   1.288  -0.651  1.00  0.00     0.134 A 
ATOM      4  C   UNL     1      -3.067   0.037  -0.115  1.00  0.00     0.433 A 
ATOM      5  O   UNL     1      -1.890  -0.536   0.252  1.00  0.00    -0.400 OA
ENDROOT
BRANCH   1   6
ATOM      6  C   UNL     1       0.455   0.015   0.229  1.00  0.00     0.180 C 
ATOM      7  N   UNL     1       1.407   0.869   0.013  1.00  0.00    -0.176 NA
BRANCH   7   8
ATOM      8  N   UNL     1       2.695   0.456   0.273  1.00  0.00    -0.229 N 
ATOM      9  N   UNL     1       4.514  -0.911   0.187  1.00  0.00    -0.350 N 
ATOM     10  C   UNL     1       3.181  -0.791  -0.077  1.00  0.00     0.332 C 
ATOM     11  O   UNL     1       2.552  -1.722  -0.559  1.00  0.00    -0.247 OA
ATOM     12  H   UNL     1       4.842  -0.484   1.043  1.00  0.00     0.161 HD
ATOM     13  H   UNL     1       4.853  -1.856   0.043  1.00  0.00     0.161 HD
ATOM     14  H   UNL     1       3.375   1.201   0.166  1.00  0.00     0.195 HD
ENDBRANCH   7   8
ENDBRANCH   1   6
BRANCH   4  15
ATOM     15  N   UNL     1      -4.251  -0.731   0.114  1.00  0.00     0.102 N 
ATOM     16  O   UNL     1      -5.318  -0.209  -0.236  1.00  0.00    -0.256 OA
ATOM     17  O   UNL     1      -4.127  -1.843   0.643  1.00  0.00    -0.256 OA
ENDBRANCH   4  15
TORSDOF 3
