REMARK SMILES CC(=O)[C@@]1(O)CC[C@H]2[C@@H]3C=C(C)C4=CC(=O)CC[C@@H]4[C@H]3CC[C@@]21C
REMARK SMILES IDX 4 1 6 2 7 3 8 4 9 5 10 6 11 7 12 8 13 9 14 10 15 11 16 12
REMARK SMILES IDX 17 13 18 14 19 15 20 16 21 17 22 18 23 19 24 20 2 21 3 22
REMARK SMILES IDX 1 23 5 24
REMARK H PARENT 5 25
ROOT
ATOM      1  C   UNL     1      -3.283  -0.491  -0.330  1.00  0.00     0.128 C 
ATOM      2  C   UNL     1      -3.137  -0.687  -1.857  1.00  0.00     0.044 C 
ATOM      3  C   UNL     1      -1.630  -0.574  -2.169  1.00  0.00     0.008 C 
ATOM      4  C   UNL     1      -0.953  -0.521  -0.802  1.00  0.00     0.005 C 
ATOM      5  C   UNL     1       0.466   0.051  -0.690  1.00  0.00     0.019 C 
ATOM      6  C   UNL     1       1.461  -0.618  -1.599  1.00  0.00    -0.019 C 
ATOM      7  C   UNL     1       2.754  -0.826  -1.286  1.00  0.00    -0.051 C 
ATOM      8  C   UNL     1       3.654  -1.510  -2.287  1.00  0.00     0.044 C 
ATOM      9  C   UNL     1       3.312  -0.366  -0.002  1.00  0.00    -0.038 C 
ATOM     10  C   UNL     1       4.585  -0.629   0.351  1.00  0.00     0.051 C 
ATOM     11  C   UNL     1       5.176  -0.118   1.610  1.00  0.00     0.156 C 
ATOM     12  O   UNL     1       6.350  -0.374   1.871  1.00  0.00    -0.295 OA
ATOM     13  C   UNL     1       4.334   0.764   2.492  1.00  0.00     0.081 C 
ATOM     14  C   UNL     1       2.865   0.396   2.377  1.00  0.00     0.017 C 
ATOM     15  C   UNL     1       2.379   0.434   0.917  1.00  0.00     0.024 C 
ATOM     16  C   UNL     1       0.920  -0.076   0.790  1.00  0.00     0.004 C 
ATOM     17  C   UNL     1      -0.080   0.606   1.750  1.00  0.00     0.005 C 
ATOM     18  C   UNL     1      -1.529   0.127   1.539  1.00  0.00     0.011 C 
ATOM     19  C   UNL     1      -1.976   0.255   0.071  1.00  0.00     0.007 C 
ATOM     20  C   UNL     1      -2.085   1.760  -0.296  1.00  0.00     0.015 C 
ENDROOT
BRANCH   1  21
ATOM     21  C   UNL     1      -4.571   0.188   0.169  1.00  0.00     0.161 C 
ATOM     22  O   UNL     1      -4.889   0.093   1.360  1.00  0.00    -0.297 OA
ATOM     23  C   UNL     1      -5.441   0.947  -0.794  1.00  0.00     0.091 C 
ENDBRANCH   1  21
BRANCH   1  24
ATOM     24  O   UNL     1      -3.299  -1.807   0.255  1.00  0.00    -0.382 OA
ATOM     25  H   UNL     1      -3.600  -1.692   1.179  1.00  0.00     0.212 HD
ENDBRANCH   1  24
TORSDOF 2
