REMARK SMILES COc1ccc2c(c1OC)C(=O)O[C@@H]2[C@H]1c2c(cc3c(c2OC)OCO3)CCN1C
REMARK SMILES IDX 15 1 29 2 30 3 28 4 27 5 17 6 16 7 21 8 20 9 24 10 25 11
REMARK SMILES IDX 26 12 19 13 18 14 14 15 3 16 4 17 8 18 5 19 7 20 6 21 11 22
REMARK SMILES IDX 13 23 12 24 2 25 1 26 9 27 10 28 22 29 23 30
REMARK H PARENT
ROOT
ATOM      1  C   UNL     1       0.751  -0.744  -0.205  1.00  0.00     0.137 C 
ATOM      2  N   UNL     1       0.528  -2.167  -0.613  1.00  0.00    -0.295 NA
ATOM      3  C   UNL     1       0.193  -2.266  -2.036  1.00  0.00     0.106 C 
ATOM      4  C   UNL     1       1.616  -3.103  -0.286  1.00  0.00     0.089 C 
ATOM      5  C   UNL     1       2.354  -2.771   1.013  1.00  0.00     0.051 C 
ATOM      6  C   UNL     1       2.963  -1.406   0.857  1.00  0.00    -0.034 A 
ATOM      7  C   UNL     1       2.199  -0.418   0.181  1.00  0.00     0.023 A 
ATOM      8  C   UNL     1       2.748   0.863  -0.041  1.00  0.00     0.170 A 
ATOM      9  C   UNL     1       4.033   1.106   0.418  1.00  0.00     0.207 A 
ATOM     10  O   UNL     1       4.758   2.252   0.275  1.00  0.00    -0.450 OA
ATOM     11  C   UNL     1       5.982   1.906   0.948  1.00  0.00     0.468 C 
ATOM     12  O   UNL     1       5.988   0.563   1.466  1.00  0.00    -0.453 OA
ATOM     13  C   UNL     1       4.749   0.140   1.094  1.00  0.00     0.169 A 
ATOM     14  C   UNL     1       4.245  -1.119   1.335  1.00  0.00     0.055 A 
ENDROOT
BRANCH   1  15
ATOM     15  C   UNL     1      -0.206  -0.365   0.983  1.00  0.00     0.230 C 
ATOM     16  C   UNL     1      -4.380  -0.013   0.174  1.00  0.00     0.161 A 
ATOM     17  C   UNL     1      -3.828  -1.306   0.130  1.00  0.00     0.051 A 
ATOM     18  C   UNL     1      -3.548   1.081   0.465  1.00  0.00     0.175 A 
ATOM     19  C   UNL     1      -2.466  -1.516   0.384  1.00  0.00     0.012 A 
ATOM     20  C   UNL     1      -2.206   0.844   0.723  1.00  0.00     0.112 A 
ATOM     21  C   UNL     1      -1.661  -0.424   0.671  1.00  0.00     0.013 A 
ATOM     22  C   UNL     1      -1.158   1.785   1.095  1.00  0.00     0.343 C 
ATOM     23  O   UNL     1      -0.044   1.036   1.338  1.00  0.00    -0.452 OA
ATOM     24  O   UNL     1      -1.226   2.994   1.181  1.00  0.00    -0.246 OA
BRANCH  16  25
ATOM     25  O   UNL     1      -5.700   0.278  -0.056  1.00  0.00    -0.493 OA
ATOM     26  C   UNL     1      -6.599  -0.815  -0.182  1.00  0.00     0.278 C 
ENDBRANCH  16  25
BRANCH  18  27
ATOM     27  O   UNL     1      -4.073   2.338   0.585  1.00  0.00    -0.492 OA
ATOM     28  C   UNL     1      -4.051   3.008  -0.674  1.00  0.00     0.278 C 
ENDBRANCH  18  27
ENDBRANCH   1  15
BRANCH   8  29
ATOM     29  O   UNL     1       1.979   1.755  -0.736  1.00  0.00    -0.492 OA
ATOM     30  C   UNL     1       2.092   3.112  -0.316  1.00  0.00     0.278 C 
ENDBRANCH   8  29
TORSDOF 4
