REMARK SMILES CN(C)CCON=C1c2ccccc2CCc2ccccc21
REMARK SMILES IDX 5 1 4 2 2 3 1 4 3 5 6 6 7 7 8 8 9 9 10 10 14 11 11 12 13 13
REMARK SMILES IDX 12 14 15 15 22 17 17 18 21 19 18 20 20 21 19 22 16 23
REMARK H PARENT
REMARK Flexibility Score:   64.900
ROOT
ATOM      1  C   UNL     1       2.327  -0.889   1.506  1.00  0.00     0.279 C 
ENDROOT
BRANCH   1   2
ATOM      2  C   UNL     1       3.299  -1.814   0.756  1.00  0.00     0.128 C 
BRANCH   2   3
ATOM      3  N   UNL     1       4.343  -1.128  -0.040  1.00  0.00    -0.306 NA
ATOM      4  C   UNL     1       3.763  -0.306  -1.104  1.00  0.00     0.105 C 
ATOM      5  C   UNL     1       5.257  -2.117  -0.618  1.00  0.00     0.105 C 
ENDBRANCH   2   3
ENDBRANCH   1   2
BRANCH   1   6
ATOM      6  O   UNL     1       1.252  -0.515   0.642  1.00  0.00    -0.394 OA
BRANCH   6   7
ATOM      7  N   UNL     1       0.286   0.166   1.397  1.00  0.00    -0.086 NA
ATOM      8  C   UNL     1      -0.743   0.523   0.680  1.00  0.00     0.117 C 
BRANCH   8   9
ATOM      9  C   UNL     1      -1.875   1.212   1.371  1.00  0.00     0.007 A 
ATOM     10  C   UNL     1      -1.505   2.182   2.323  1.00  0.00     0.011 A 
ATOM     11  C   UNL     1      -3.237   0.950   1.130  1.00  0.00    -0.038 A 
ATOM     12  C   UNL     1      -2.468   2.913   3.015  1.00  0.00     0.001 A 
ATOM     13  C   UNL     1      -4.193   1.714   1.836  1.00  0.00     0.004 A 
ATOM     14  C   UNL     1      -3.814   2.683   2.766  1.00  0.00     0.000 A 
BRANCH  11  15
ATOM     15  C   UNL     1      -3.796  -0.087   0.178  1.00  0.00     0.041 CG0
ATOM     16  G   UNL     1      -2.844  -1.134  -0.396  1.00  0.00     0.000 G0
ENDBRANCH  11  15
ENDBRANCH   8   9
BRANCH   8  17
ATOM     17  C   UNL     1      -0.843   0.326  -0.788  1.00  0.00     0.007 A 
ATOM     18  C   UNL     1      -1.845  -0.493  -1.316  1.00  0.00    -0.038 A 
ATOM     19  C   UNL     1       0.076   0.965  -1.626  1.00  0.00     0.011 A 
ATOM     20  C   UNL     1      -1.912  -0.672  -2.704  1.00  0.00     0.004 A 
ATOM     21  C   UNL     1       0.001   0.781  -3.006  1.00  0.00     0.001 A 
ATOM     22  C   UNL     1      -0.992  -0.039  -3.543  1.00  0.00     0.000 A 
BRANCH  18  23
ATOM     23  C   UNL     1      -2.844  -1.134  -0.396  1.00  0.00     0.041 CG0
ATOM     24  G   UNL     1      -3.796  -0.087   0.178  1.00  0.00     0.000 G0
ENDBRANCH  18  23
ENDBRANCH   8  17
ENDBRANCH   6   7
ENDBRANCH   1   6
TORSDOF 4
