REMARK SMILES CCCCC(CC)COC(=O)c1ccccc1O
REMARK SMILES IDX 8 1 5 2 4 3 3 4 2 5 1 6 6 7 7 8 9 9 10 10 11 11 12 12 17 13
REMARK SMILES IDX 13 14 16 15 14 16 15 17 18 18
REMARK H PARENT 18 19
ROOT
ATOM      1  C   UNL     1       0.037   0.286  -0.876  1.00  0.00     0.236 C 
ENDROOT
BRANCH   1   2
ATOM      2  C   UNL     1       1.116  -0.284   0.066  1.00  0.00     0.027 C 
BRANCH   2   3
ATOM      3  C   UNL     1       2.542   0.049  -0.427  1.00  0.00     0.007 C 
BRANCH   3   4
ATOM      4  C   UNL     1       2.839   1.552  -0.508  1.00  0.00     0.000 C 
BRANCH   4   5
ATOM      5  C   UNL     1       4.281   1.863  -0.922  1.00  0.00    -0.003 C 
ATOM      6  C   UNL     1       5.316   1.468   0.121  1.00  0.00     0.004 C 
ENDBRANCH   4   5
ENDBRANCH   3   4
ENDBRANCH   2   3
BRANCH   2   7
ATOM      7  C   UNL     1       0.918  -1.813   0.221  1.00  0.00     0.004 C 
ATOM      8  C   UNL     1       1.819  -2.453   1.269  1.00  0.00     0.004 C 
ENDBRANCH   2   7
ENDBRANCH   1   2
BRANCH   1   9
ATOM      9  O   UNL     1      -1.265   0.028  -0.318  1.00  0.00    -0.462 OA
BRANCH   9  10
ATOM     10  C   UNL     1      -2.297   0.399  -1.120  1.00  0.00     0.341 C 
ATOM     11  O   UNL     1      -2.185   0.913  -2.222  1.00  0.00    -0.246 OA
BRANCH  10  12
ATOM     12  C   UNL     1      -3.607   0.094  -0.480  1.00  0.00     0.101 A 
ATOM     13  C   UNL     1      -3.762  -0.428   0.813  1.00  0.00     0.130 A 
ATOM     14  C   UNL     1      -4.758   0.361  -1.242  1.00  0.00     0.019 A 
ATOM     15  C   UNL     1      -5.036  -0.678   1.327  1.00  0.00     0.047 A 
ATOM     16  C   UNL     1      -6.031   0.110  -0.725  1.00  0.00     0.001 A 
ATOM     17  C   UNL     1      -6.169  -0.410   0.560  1.00  0.00     0.004 A 
BRANCH  13  18
ATOM     18  O   UNL     1      -2.727  -0.726   1.657  1.00  0.00    -0.507 OA
ATOM     19  H   UNL     1      -1.890  -0.528   1.194  1.00  0.00     0.293 HD
ENDBRANCH  13  18
ENDBRANCH  10  12
ENDBRANCH   9  10
ENDBRANCH   1   9
TORSDOF 9
