REMARK SMILES CC1COc2c(N3CCN(C)CC3)c(F)cc3c(=O)c(C(=O)O)cn1c23
REMARK SMILES IDX 1 1 2 2 3 3 4 4 5 5 6 6 14 7 15 8 16 9 17 10 26 11 25 12
REMARK SMILES IDX 24 13 20 14 18 15 19 16 21 17 22 18 23 19 7 21 8 22 13 23
REMARK SMILES IDX 9 24 12 25 10 26 11 27
REMARK H PARENT 23 20
ROOT
ATOM      1  C   UNL     1       2.845  -3.059   0.795  1.00  0.00     0.035 C 
ATOM      2  C   UNL     1       1.950  -2.039   0.089  1.00  0.00     0.122 C 
ATOM      3  C   UNL     1       0.612  -1.969   0.833  1.00  0.00     0.254 C 
ATOM      4  O   UNL     1      -0.306  -1.115   0.154  1.00  0.00    -0.487 OA
ATOM      5  C   UNL     1       0.207   0.150  -0.048  1.00  0.00     0.170 A 
ATOM      6  C   UNL     1      -0.721   1.208  -0.210  1.00  0.00     0.118 A 
ATOM      7  C   UNL     1      -0.189   2.507  -0.337  1.00  0.00     0.151 A 
ATOM      8  F   UNL     1      -1.017   3.558  -0.461  1.00  0.00    -0.205 F 
ATOM      9  C   UNL     1       1.177   2.756  -0.355  1.00  0.00     0.056 A 
ATOM     10  C   UNL     1       2.068   1.690  -0.242  1.00  0.00     0.053 A 
ATOM     11  C   UNL     1       1.607   0.371  -0.082  1.00  0.00     0.097 A 
ATOM     12  N   UNL     1       2.551  -0.686   0.044  1.00  0.00    -0.337 N 
ATOM     13  C   UNL     1       3.891  -0.413  -0.185  1.00  0.00     0.106 C 
ATOM     14  C   UNL     1       4.445   0.800  -0.346  1.00  0.00     0.124 C 
ATOM     15  C   UNL     1       3.526   1.963  -0.294  1.00  0.00     0.204 C 
ATOM     16  O   UNL     1       3.926   3.122  -0.288  1.00  0.00    -0.288 OA
ENDROOT
BRANCH  14  17
ATOM     17  C   UNL     1       5.890   0.955  -0.595  1.00  0.00     0.341 C 
ATOM     18  O   UNL     1       6.462   1.932  -1.041  1.00  0.00    -0.246 OA
BRANCH  17  19
ATOM     19  O   UNL     1       6.605  -0.147  -0.284  1.00  0.00    -0.477 OA
ATOM     20  H   UNL     1       7.524   0.127  -0.490  1.00  0.00     0.297 HD
ENDBRANCH  17  19
ENDBRANCH  14  17
BRANCH   6  21
ATOM     21  N   UNL     1      -2.119   1.058  -0.211  1.00  0.00    -0.364 N 
ATOM     22  C   UNL     1      -2.740   1.440   1.076  1.00  0.00     0.132 C 
ATOM     23  C   UNL     1      -2.742  -0.092  -0.892  1.00  0.00     0.132 C 
ATOM     24  C   UNL     1      -4.249   1.107   1.068  1.00  0.00     0.105 C 
ATOM     25  C   UNL     1      -3.502  -1.010   0.093  1.00  0.00     0.105 C 
ATOM     26  N   UNL     1      -4.538  -0.338   0.913  1.00  0.00    -0.303 NA
ATOM     27  C   UNL     1      -5.877  -0.533   0.363  1.00  0.00     0.105 C 
ENDBRANCH   6  21
TORSDOF 3
