REMARK SMILES CCCCCCCCCCCCCCCCCCN(CCO)CCCN(CCO)CCO
REMARK SMILES IDX 14 1 13 2 12 3 11 4 10 5 9 6 8 7 7 8 6 9 5 10 4 11 3 12 2 13
REMARK SMILES IDX 1 14 15 15 16 16 17 17 18 18 19 19 20 20 21 21 22 22 23 24
REMARK SMILES IDX 24 25 25 26 26 27 27 28 28 29 29 30 30 32 31 33 32 34
REMARK H PARENT 22 23 29 31 32 35
ROOT
ATOM      1  C   UNL     1       1.470  -2.038   3.040  1.00  0.00     0.000 C 
ENDROOT
BRANCH   1   2
ATOM      2  C   UNL     1       1.731  -2.756   1.712  1.00  0.00     0.000 C 
BRANCH   2   3
ATOM      3  C   UNL     1       3.104  -3.433   1.710  1.00  0.00     0.000 C 
BRANCH   3   4
ATOM      4  C   UNL     1       3.390  -4.218   0.429  1.00  0.00     0.000 C 
BRANCH   4   5
ATOM      5  C   UNL     1       3.438  -3.410  -0.874  1.00  0.00     0.000 C 
BRANCH   5   6
ATOM      6  C   UNL     1       4.595  -2.408  -0.969  1.00  0.00    -0.000 C 
BRANCH   6   7
ATOM      7  C   UNL     1       4.198  -0.983  -0.575  1.00  0.00    -0.000 C 
BRANCH   7   8
ATOM      8  C   UNL     1       5.358   0.016  -0.663  1.00  0.00    -0.000 C 
BRANCH   8   9
ATOM      9  C   UNL     1       5.843   0.256  -2.096  1.00  0.00    -0.000 C 
BRANCH   9  10
ATOM     10  C   UNL     1       6.826   1.427  -2.212  1.00  0.00    -0.000 C 
BRANCH  10  11
ATOM     11  C   UNL     1       8.169   1.159  -1.525  1.00  0.00    -0.000 C 
BRANCH  11  12
ATOM     12  C   UNL     1       9.185   2.289  -1.732  1.00  0.00    -0.000 C 
BRANCH  12  13
ATOM     13  C   UNL     1       9.240   3.318  -0.599  1.00  0.00    -0.003 C 
ATOM     14  C   UNL     1       7.965   4.123  -0.416  1.00  0.00     0.004 C 
ENDBRANCH  12  13
ENDBRANCH  11  12
ENDBRANCH  10  11
ENDBRANCH   9  10
ENDBRANCH   8   9
ENDBRANCH   7   8
ENDBRANCH   6   7
ENDBRANCH   5   6
ENDBRANCH   4   5
ENDBRANCH   3   4
ENDBRANCH   2   3
ENDBRANCH   1   2
BRANCH   1  15
ATOM     15  C   UNL     1       0.183  -1.207   3.031  1.00  0.00     0.000 C 
BRANCH  15  16
ATOM     16  C   UNL     1      -1.086  -2.056   2.931  1.00  0.00     0.001 C 
BRANCH  16  17
ATOM     17  C   UNL     1      -2.372  -1.229   3.060  1.00  0.00     0.016 C 
BRANCH  17  18
ATOM     18  C   UNL     1      -2.590  -0.276   1.874  1.00  0.00     0.084 C 
BRANCH  18  19
ATOM     19  N   UNL     1      -3.896   0.408   1.960  1.00  0.00    -0.301 NA
BRANCH  19  20
ATOM     20  C   UNL     1      -3.824   1.557   2.897  1.00  0.00     0.112 C 
BRANCH  20  21
ATOM     21  C   UNL     1      -5.198   1.946   3.470  1.00  0.00     0.171 C 
BRANCH  21  22
ATOM     22  O   UNL     1      -5.591   1.037   4.497  1.00  0.00    -0.395 OA
ATOM     23  H   UNL     1      -6.548   1.152   4.621  1.00  0.00     0.210 HD
ENDBRANCH  21  22
ENDBRANCH  20  21
ENDBRANCH  19  20
BRANCH  19  24
ATOM     24  C   UNL     1      -4.338   0.860   0.622  1.00  0.00     0.086 C 
BRANCH  24  25
ATOM     25  C   UNL     1      -5.031  -0.277  -0.142  1.00  0.00     0.031 C 
BRANCH  25  26
ATOM     26  C   UNL     1      -5.431   0.131  -1.569  1.00  0.00     0.086 C 
BRANCH  26  27
ATOM     27  N   UNL     1      -6.291   1.325  -1.656  1.00  0.00    -0.299 NA
BRANCH  27  28
ATOM     28  C   UNL     1      -6.254   1.922  -3.008  1.00  0.00     0.112 C 
BRANCH  28  29
ATOM     29  C   UNL     1      -6.785   1.080  -4.184  1.00  0.00     0.171 C 
BRANCH  29  30
ATOM     30  O   UNL     1      -8.207   0.989  -4.147  1.00  0.00    -0.395 OA
ATOM     31  H   UNL     1      -8.474   0.478  -4.933  1.00  0.00     0.210 HD
ENDBRANCH  29  30
ENDBRANCH  28  29
ENDBRANCH  27  28
BRANCH  27  32
ATOM     32  C   UNL     1      -7.650   1.064  -1.133  1.00  0.00     0.112 C 
BRANCH  32  33
ATOM     33  C   UNL     1      -8.574   2.298  -1.062  1.00  0.00     0.171 C 
BRANCH  33  34
ATOM     34  O   UNL     1      -9.353   2.493  -2.237  1.00  0.00    -0.395 OA
ATOM     35  H   UNL     1      -8.950   1.963  -2.958  1.00  0.00     0.210 HD
ENDBRANCH  33  34
ENDBRANCH  32  33
ENDBRANCH  27  32
ENDBRANCH  26  27
ENDBRANCH  25  26
ENDBRANCH  24  25
ENDBRANCH  19  24
ENDBRANCH  18  19
ENDBRANCH  17  18
ENDBRANCH  16  17
ENDBRANCH  15  16
ENDBRANCH   1  15
TORSDOF 30
