REMARK SMILES OCCN1CCN(CCCN2c3ccccc3C=Cc3ccccc32)CC1
REMARK SMILES IDX 4 1 5 2 6 3 7 4 26 5 27 6 3 7 2 8 1 9 8 11 9 12 10 13 11 14
REMARK SMILES IDX 12 15 25 16 13 17 17 18 20 19 24 20 14 21 16 22 18 23 19 24
REMARK SMILES IDX 21 25 23 26 15 27 22 28
REMARK H PARENT 1 10
ROOT
ATOM      1  N   UNL     1       4.376  -1.032   0.286  1.00  0.00    -0.299 NA
ATOM      2  C   UNL     1       3.420  -0.818  -0.825  1.00  0.00     0.100 C 
ATOM      3  C   UNL     1       1.957  -1.121  -0.431  1.00  0.00     0.100 C 
ATOM      4  N   UNL     1       1.438  -0.264   0.659  1.00  0.00    -0.301 NA
ATOM      5  C   UNL     1       2.537   0.210   1.526  1.00  0.00     0.100 C 
ATOM      6  C   UNL     1       3.732  -0.768   1.591  1.00  0.00     0.100 C 
ENDROOT
BRANCH   1   7
ATOM      7  C   UNL     1       5.605  -0.234   0.110  1.00  0.00     0.112 C 
BRANCH   7   8
ATOM      8  C   UNL     1       6.412  -0.591  -1.151  1.00  0.00     0.171 C 
BRANCH   8   9
ATOM      9  O   UNL     1       5.881   0.054  -2.306  1.00  0.00    -0.395 OA
ATOM     10  H   UNL     1       6.381  -0.285  -3.068  1.00  0.00     0.210 HD
ENDBRANCH   8   9
ENDBRANCH   7   8
ENDBRANCH   1   7
BRANCH   4  11
ATOM     11  C   UNL     1       0.629   0.848   0.131  1.00  0.00     0.086 C 
BRANCH  11  12
ATOM     12  C   UNL     1      -0.166   1.599   1.209  1.00  0.00     0.037 C 
BRANCH  12  13
ATOM     13  C   UNL     1      -1.247   0.733   1.875  1.00  0.00     0.124 C 
BRANCH  13  14
ATOM     14  N   UNL     1      -2.344   0.393   0.944  1.00  0.00    -0.340 N 
ATOM     15  C   UNL     1      -3.105   1.439   0.369  1.00  0.00     0.048 A 
ATOM     16  C   UNL     1      -2.773  -0.958   0.936  1.00  0.00     0.048 A 
ATOM     17  C   UNL     1      -3.453   2.576   1.127  1.00  0.00     0.027 A 
ATOM     18  C   UNL     1      -3.562   1.375  -0.966  1.00  0.00    -0.002 A 
ATOM     19  C   UNL     1      -3.144  -1.613  -0.258  1.00  0.00    -0.002 A 
ATOM     20  C   UNL     1      -2.877  -1.682   2.143  1.00  0.00     0.027 A 
ATOM     21  C   UNL     1      -4.210   3.620   0.588  1.00  0.00     0.002 A 
ATOM     22  C   UNL     1      -4.315   2.438  -1.501  1.00  0.00     0.010 A 
ATOM     23  C   UNL     1      -3.206   0.291  -1.894  1.00  0.00     0.011 C 
ATOM     24  C   UNL     1      -3.024  -1.000  -1.588  1.00  0.00     0.011 C 
ATOM     25  C   UNL     1      -3.566  -2.956  -0.217  1.00  0.00     0.010 A 
ATOM     26  C   UNL     1      -3.309  -3.010   2.172  1.00  0.00     0.002 A 
ATOM     27  C   UNL     1      -4.641   3.551  -0.729  1.00  0.00     0.001 A 
ATOM     28  C   UNL     1      -3.652  -3.649   0.989  1.00  0.00     0.001 A 
ENDBRANCH  13  14
ENDBRANCH  12  13
ENDBRANCH  11  12
ENDBRANCH   4  11
TORSDOF 7
