REMARK SMILES FC(F)(F)c1ccc2c(c1)N(CCCN1CCN(CCC3OCCCO3)CC1)c1ccccc1S2
REMARK SMILES IDX 13 1 12 2 11 3 5 4 6 5 10 6 7 7 9 8 8 9 35 10 29 11 34 12
REMARK SMILES IDX 30 13 33 14 31 15 32 16 2 17 1 18 3 19 4 20 14 21 15 22
REMARK SMILES IDX 16 23 28 24 17 25 27 26 18 27 19 28 20 29 21 30 22 31 26 32
REMARK SMILES IDX 23 33 25 34 24 35
REMARK H PARENT
ROOT
ATOM      1  C   UNL     1      -1.972   1.481  -0.575  1.00  0.00     0.037 C 
ENDROOT
BRANCH   1   2
ATOM      2  C   UNL     1      -2.590   0.415  -1.497  1.00  0.00     0.124 C 
BRANCH   2   3
ATOM      3  N   UNL     1      -3.731  -0.314  -0.873  1.00  0.00    -0.340 N 
ATOM      4  C   UNL     1      -6.494   2.217  -1.205  1.00  0.00     0.058 A 
ATOM      5  C   UNL     1      -7.138   2.073   0.026  1.00  0.00     0.014 A 
ATOM      6  C   UNL     1      -5.379   1.405  -1.487  1.00  0.00     0.040 A 
ATOM      7  C   UNL     1      -6.672   1.140   0.951  1.00  0.00     0.018 A 
ATOM      8  C   UNL     1      -4.869   0.476  -0.556  1.00  0.00     0.056 A 
ATOM      9  C   UNL     1      -5.553   0.339   0.666  1.00  0.00     0.036 A 
ATOM     10  S   UNL     1      -5.032  -0.789   1.940  1.00  0.00    -0.086 SA
ATOM     11  C   UNL     1      -3.396  -1.530  -0.215  1.00  0.00     0.055 A 
ATOM     12  C   UNL     1      -3.942  -1.872   1.038  1.00  0.00     0.036 A 
ATOM     13  C   UNL     1      -2.548  -2.474  -0.829  1.00  0.00     0.027 A 
ATOM     14  C   UNL     1      -3.602  -3.087   1.659  1.00  0.00     0.017 A 
ATOM     15  C   UNL     1      -2.215  -3.682  -0.208  1.00  0.00     0.002 A 
ATOM     16  C   UNL     1      -2.740  -3.988   1.040  1.00  0.00     0.001 A 
BRANCH   4  17
ATOM     17  C   UNL     1      -7.009   3.197  -2.231  1.00  0.00     0.416 C 
ATOM     18  F   UNL     1      -7.520   4.330  -1.674  1.00  0.00    -0.166 F 
ATOM     19  F   UNL     1      -8.006   2.674  -2.997  1.00  0.00    -0.166 F 
ATOM     20  F   UNL     1      -6.047   3.615  -3.101  1.00  0.00    -0.166 F 
ENDBRANCH   4  17
ENDBRANCH   2   3
ENDBRANCH   1   2
BRANCH   1  21
ATOM     21  C   UNL     1      -1.141   0.905   0.578  1.00  0.00     0.086 C 
BRANCH  21  22
ATOM     22  N   UNL     1       0.006   0.109   0.115  1.00  0.00    -0.301 NA
ATOM     23  C   UNL     1       1.060   0.959  -0.482  1.00  0.00     0.100 C 
ATOM     24  C   UNL     1       0.556  -0.742   1.191  1.00  0.00     0.100 C 
ATOM     25  C   UNL     1       2.483   0.365  -0.363  1.00  0.00     0.100 C 
ATOM     26  C   UNL     1       1.765  -0.118   1.919  1.00  0.00     0.100 C 
ATOM     27  N   UNL     1       2.921   0.124   1.028  1.00  0.00    -0.301 NA
BRANCH  27  28
ATOM     28  C   UNL     1       3.778   1.181   1.575  1.00  0.00     0.090 C 
BRANCH  28  29
ATOM     29  C   UNL     1       5.154   1.360   0.914  1.00  0.00     0.078 C 
BRANCH  29  30
ATOM     30  C   UNL     1       5.949   0.058   0.785  1.00  0.00     0.251 C 
ATOM     31  O   UNL     1       7.341   0.392   0.875  1.00  0.00    -0.353 OA
ATOM     32  O   UNL     1       5.643  -0.555  -0.466  1.00  0.00    -0.353 OA
ATOM     33  C   UNL     1       8.174  -0.435   0.065  1.00  0.00     0.166 C 
ATOM     34  C   UNL     1       6.233  -1.849  -0.558  1.00  0.00     0.166 C 
ATOM     35  C   UNL     1       7.653  -1.858  -0.007  1.00  0.00     0.057 C 
ENDBRANCH  29  30
ENDBRANCH  28  29
ENDBRANCH  27  28
ENDBRANCH  21  22
ENDBRANCH   1  21
TORSDOF 8
