REMARK SMILES CCN(CC)CCOc1cc2oc(=O)cc(C)c2cc1OCCN(CC)CC
REMARK SMILES IDX 9 1 20 2 19 3 18 4 16 5 17 6 15 7 13 8 14 9 12 10 11 11
REMARK SMILES IDX 10 12 8 13 7 14 6 15 3 16 2 17 1 18 4 19 5 20 21 21 22 22
REMARK SMILES IDX 23 23 24 24 25 25 26 26 27 27 28 28
REMARK H PARENT
ROOT
ATOM      1  C   UNL     1       0.819   0.048   0.131  1.00  0.00     0.164 A 
ATOM      2  C   UNL     1      -0.421  -0.135  -0.497  1.00  0.00     0.162 A 
ATOM      3  C   UNL     1      -1.085   0.979  -1.029  1.00  0.00     0.062 A 
ATOM      4  C   UNL     1      -0.544   2.270  -0.905  1.00  0.00     0.024 A 
ATOM      5  C   UNL     1      -1.205   3.478  -1.423  1.00  0.00    -0.033 C 
ATOM      6  C   UNL     1      -2.533   3.378  -2.115  1.00  0.00     0.045 C 
ATOM      7  C   UNL     1      -0.595   4.660  -1.255  1.00  0.00     0.098 C 
ATOM      8  C   UNL     1       0.702   4.817  -0.578  1.00  0.00     0.336 C 
ATOM      9  O   UNL     1       1.217   5.924  -0.463  1.00  0.00    -0.246 OA
ATOM     10  O   UNL     1       1.296   3.667  -0.091  1.00  0.00    -0.423 OA
ATOM     11  C   UNL     1       0.682   2.409  -0.250  1.00  0.00     0.142 A 
ATOM     12  C   UNL     1       1.367   1.319   0.275  1.00  0.00     0.098 A 
ENDROOT
BRANCH   1  13
ATOM     13  O   UNL     1       1.511  -0.992   0.692  1.00  0.00    -0.488 OA
BRANCH  13  14
ATOM     14  C   UNL     1       2.115  -1.817  -0.316  1.00  0.00     0.245 C 
BRANCH  14  15
ATOM     15  C   UNL     1       3.571  -2.132   0.085  1.00  0.00     0.126 C 
BRANCH  15  16
ATOM     16  N   UNL     1       4.469  -0.955   0.155  1.00  0.00    -0.301 NA
BRANCH  16  17
ATOM     17  C   UNL     1       5.669  -1.247   0.958  1.00  0.00     0.081 C 
ATOM     18  C   UNL     1       6.652  -2.252   0.366  1.00  0.00     0.021 C 
ENDBRANCH  16  17
BRANCH  16  19
ATOM     19  C   UNL     1       4.754  -0.395  -1.174  1.00  0.00     0.081 C 
ATOM     20  C   UNL     1       5.533   0.918  -1.131  1.00  0.00     0.021 C 
ENDBRANCH  16  19
ENDBRANCH  15  16
ENDBRANCH  14  15
ENDBRANCH  13  14
ENDBRANCH   1  13
BRANCH   2  21
ATOM     21  O   UNL     1      -0.887  -1.421  -0.569  1.00  0.00    -0.488 OA
BRANCH  21  22
ATOM     22  C   UNL     1      -2.306  -1.622  -0.586  1.00  0.00     0.245 C 
BRANCH  22  23
ATOM     23  C   UNL     1      -2.948  -1.297   0.776  1.00  0.00     0.126 C 
BRANCH  23  24
ATOM     24  N   UNL     1      -4.397  -1.569   0.825  1.00  0.00    -0.301 NA
BRANCH  24  25
ATOM     25  C   UNL     1      -4.896  -1.639   2.209  1.00  0.00     0.081 C 
ATOM     26  C   UNL     1      -4.693  -0.389   3.063  1.00  0.00     0.021 C 
ENDBRANCH  24  25
BRANCH  24  27
ATOM     27  C   UNL     1      -5.181  -0.646  -0.005  1.00  0.00     0.081 C 
ATOM     28  C   UNL     1      -5.805  -1.408  -1.167  1.00  0.00     0.021 C 
ENDBRANCH  24  27
ENDBRANCH  23  24
ENDBRANCH  22  23
ENDBRANCH  21  22
ENDBRANCH   2  21
TORSDOF 12
