REMARK SMILES COc1ccc2c(c1)c(CC(=O)NO)c(C)n2C(=O)c1ccc(Cl)cc1
REMARK SMILES IDX 3 1 8 2 7 3 6 4 5 5 4 6 17 7 15 8 16 9 9 10 2 11 1 12 10 13
REMARK SMILES IDX 11 14 12 15 13 16 14 18 18 20 19 21 20 22 21 23 26 24 22 25
REMARK SMILES IDX 25 26 23 27 24 28
REMARK H PARENT 13 17 14 19
ROOT
ATOM      1  C   UNL     1      -3.418  -0.568   1.730  1.00  0.00     0.119 A 
ATOM      2  C   UNL     1      -2.573   0.544   1.636  1.00  0.00     0.057 A 
ATOM      3  C   UNL     1      -1.327   0.448   0.975  1.00  0.00     0.008 A 
ATOM      4  C   UNL     1      -0.947  -0.777   0.425  1.00  0.00     0.057 A 
ATOM      5  C   UNL     1      -1.789  -1.902   0.524  1.00  0.00     0.031 A 
ATOM      6  C   UNL     1      -3.027  -1.778   1.170  1.00  0.00     0.048 A 
ATOM      7  N   UNL     1       0.337  -0.632  -0.119  1.00  0.00    -0.280 N 
ATOM      8  C   UNL     1       0.677   0.724  -0.050  1.00  0.00     0.028 A 
ATOM      9  C   UNL     1       1.864   1.326  -0.741  1.00  0.00     0.065 C 
ATOM     10  C   UNL     1      -0.302   1.391   0.679  1.00  0.00    -0.009 A 
ENDROOT
BRANCH   1  11
ATOM     11  O   UNL     1      -4.596  -0.329   2.384  1.00  0.00    -0.497 OA
ATOM     12  C   UNL     1      -5.469  -1.440   2.568  1.00  0.00     0.278 C 
ENDBRANCH   1  11
BRANCH  10  13
ATOM     13  C   UNL     1      -0.327   2.855   1.025  1.00  0.00     0.140 C 
BRANCH  13  14
ATOM     14  C   UNL     1      -0.742   3.735  -0.140  1.00  0.00     0.247 C 
ATOM     15  O   UNL     1      -0.148   4.778  -0.427  1.00  0.00    -0.272 OA
ATOM     16  N   UNL     1      -1.863   3.333  -0.832  1.00  0.00    -0.238 N 
ATOM     17  H   UNL     1      -2.218   2.373  -0.817  1.00  0.00     0.198 HD
BRANCH  16  18
ATOM     18  O   UNL     1      -2.196   4.108  -1.969  1.00  0.00    -0.289 OA
ATOM     19  H   UNL     1      -1.508   4.809  -1.950  1.00  0.00     0.246 HD
ENDBRANCH  16  18
ENDBRANCH  13  14
ENDBRANCH  10  13
BRANCH   7  20
ATOM     20  C   UNL     1       1.115  -1.693  -0.657  1.00  0.00     0.262 C 
ATOM     21  O   UNL     1       0.527  -2.682  -1.090  1.00  0.00    -0.268 OA
BRANCH  20  22
ATOM     22  C   UNL     1       2.595  -1.726  -0.715  1.00  0.00     0.040 A 
ATOM     23  C   UNL     1       3.220  -2.217  -1.870  1.00  0.00     0.015 A 
ATOM     24  C   UNL     1       3.361  -1.347   0.393  1.00  0.00     0.015 A 
ATOM     25  C   UNL     1       4.613  -2.285  -1.931  1.00  0.00     0.021 A 
ATOM     26  C   UNL     1       4.755  -1.415   0.327  1.00  0.00     0.021 A 
ATOM     27  C   UNL     1       5.374  -1.879  -0.835  1.00  0.00     0.041 A 
ATOM     28  Cl  UNL     1       7.090  -1.960  -0.911  1.00  0.00    -0.084 Cl
ENDBRANCH  20  22
ENDBRANCH   7  20
TORSDOF 6
