REMARK SMILES Clc1ccc(CO/N=C(\Cn2ccnc2)c2ccc(Cl)cc2Cl)c(Cl)c1
REMARK SMILES IDX 7 1 6 2 5 3 2 4 26 5 3 6 24 7 4 8 1 9 25 10 8 11 9 12 10 13
REMARK SMILES IDX 11 14 12 15 15 16 13 17 14 18 16 19 22 20 17 21 21 22 18 23
REMARK SMILES IDX 19 24 23 25 20 26
REMARK H PARENT
ROOT
ATOM      1  O   UNL     1      -0.868  -1.281  -1.417  1.00  0.00    -0.391 OA
ENDROOT
BRANCH   1   2
ATOM      2  C   UNL     1      -0.001  -1.806  -2.425  1.00  0.00     0.301 C 
BRANCH   2   3
ATOM      3  C   UNL     1       1.383  -2.045  -1.874  1.00  0.00     0.011 A 
ATOM      4  C   UNL     1       3.976  -2.393  -0.858  1.00  0.00     0.042 A 
ATOM      5  C   UNL     1       3.015  -3.379  -0.652  1.00  0.00     0.041 A 
ATOM      6  C   UNL     1       3.658  -1.229  -1.550  1.00  0.00     0.021 A 
ATOM      7  C   UNL     1       1.721  -3.203  -1.153  1.00  0.00     0.049 A 
ATOM      8  C   UNL     1       2.367  -1.055  -2.053  1.00  0.00     0.010 A 
ATOM      9  Cl  UNL     1       5.570  -2.610  -0.243  1.00  0.00    -0.084 Cl
ATOM     10  Cl  UNL     1       0.570  -4.457  -0.851  1.00  0.00    -0.084 Cl
ENDBRANCH   2   3
ENDBRANCH   1   2
BRANCH   1  11
ATOM     11  N   UNL     1      -0.650   0.099  -1.290  1.00  0.00    -0.089 NA
ATOM     12  C   UNL     1      -1.379   0.613  -0.344  1.00  0.00     0.108 C 
BRANCH  12  13
ATOM     13  C   UNL     1      -2.361  -0.143   0.531  1.00  0.00     0.183 C 
BRANCH  13  14
ATOM     14  N   UNL     1      -1.742  -0.557   1.777  1.00  0.00    -0.331 N 
ATOM     15  C   UNL     1      -1.009  -1.690   1.985  1.00  0.00     0.107 A 
ATOM     16  C   UNL     1      -1.822   0.109   2.967  1.00  0.00     0.199 A 
ATOM     17  C   UNL     1      -0.660  -1.649   3.314  1.00  0.00     0.130 A 
ATOM     18  N   UNL     1      -1.167  -0.524   3.913  1.00  0.00    -0.245 NA
ENDBRANCH  13  14
ENDBRANCH  12  13
BRANCH  12  19
ATOM     19  C   UNL     1      -1.199   2.053  -0.051  1.00  0.00     0.020 A 
ATOM     20  C   UNL     1      -2.149   3.011  -0.417  1.00  0.00     0.051 A 
ATOM     21  C   UNL     1      -0.021   2.433   0.604  1.00  0.00     0.013 A 
ATOM     22  C   UNL     1      -1.927   4.355  -0.113  1.00  0.00     0.041 A 
ATOM     23  C   UNL     1       0.193   3.777   0.911  1.00  0.00     0.021 A 
ATOM     24  C   UNL     1      -0.759   4.731   0.552  1.00  0.00     0.042 A 
ATOM     25  Cl  UNL     1      -3.596   2.593  -1.262  1.00  0.00    -0.084 Cl
ATOM     26  Cl  UNL     1      -0.490   6.387   0.930  1.00  0.00    -0.084 Cl
ENDBRANCH  12  19
ENDBRANCH   1  11
TORSDOF 6
