REMARK SMILES O=P(O)(O)C(O)P(=O)(O)O
REMARK SMILES IDX 5 1 6 2 2 4 1 5 3 6 4 8 7 10 8 11 9 12 10 14
REMARK H PARENT 6 3 3 7 4 9 9 13 10 15
ROOT
ATOM      1  C   UNL     1      -0.006   0.015  -0.621  1.00  0.00     0.344 C 
ENDROOT
BRANCH   1   2
ATOM      2  O   UNL     1       0.018  -1.000  -1.668  1.00  0.00    -0.370 OA
ATOM      3  H   UNL     1       0.964  -1.216  -1.805  1.00  0.00     0.212 HD
ENDBRANCH   1   2
BRANCH   1   4
ATOM      4  P   UNL     1       1.373  -0.319   0.476  1.00  0.00     0.366 P 
ATOM      5  O   UNL     1       1.209  -1.165   1.691  1.00  0.00    -0.257 OA
BRANCH   4   6
ATOM      6  O   UNL     1       2.487  -0.959  -0.504  1.00  0.00    -0.322 OA
ATOM      7  H   UNL     1       3.221  -1.367  -0.005  1.00  0.00     0.221 HD
ENDBRANCH   4   6
BRANCH   4   8
ATOM      8  O   UNL     1       2.085   1.080   0.805  1.00  0.00    -0.322 OA
ATOM      9  H   UNL     1       2.751   1.014   1.516  1.00  0.00     0.221 HD
ENDBRANCH   4   8
ENDBRANCH   1   4
BRANCH   1  10
ATOM     10  P   UNL     1      -1.662   0.106   0.048  1.00  0.00     0.366 P 
ATOM     11  O   UNL     1      -2.285  -1.089   0.689  1.00  0.00    -0.257 OA
BRANCH  10  12
ATOM     12  O   UNL     1      -1.700   1.373   1.034  1.00  0.00    -0.322 OA
ATOM     13  H   UNL     1      -2.513   1.397   1.574  1.00  0.00     0.221 HD
ENDBRANCH  10  12
BRANCH  10  14
ATOM     14  O   UNL     1      -2.601   0.664  -1.134  1.00  0.00    -0.322 OA
ATOM     15  H   UNL     1      -3.547   0.506  -0.961  1.00  0.00     0.221 HD
ENDBRANCH  10  14
ENDBRANCH   1  10
TORSDOF 7
