REMARK SMILES N[C@@H](CCC(=O)N[C@@H](CSSC[C@H](NC(=O)CC[C@H](N)C(=O)O)C(=O)NCC(=O)O)C(=O)NCC(=O)O)C(=O)O
REMARK SMILES IDX 10 1 9 2 8 3 7 4 5 5 6 6 4 8 3 9 2 10 1 11 38 14 39 15 40 16
REMARK SMILES IDX 31 18 32 19 33 20 34 22 35 23 36 24 37 25 11 27 12 28 13 29
REMARK SMILES IDX 14 30 15 31 16 32 17 34 18 35 19 36 20 37 21 40 22 41 23 42
REMARK SMILES IDX 24 44 25 45 26 46 27 48 28 49 29 50 30 51
REMARK H PARENT 7 7 1 12 1 13 40 17 33 21 37 26 14 33 20 38 20 39 23 43 26 47
REMARK H PARENT 30 52
ROOT
ATOM      1  S   UNL     1      -0.304  -1.283  -0.562  1.00  0.00    -0.091 SA
ENDROOT
BRANCH   1   2
ATOM      2  C   UNL     1      -1.428  -1.374  -2.010  1.00  0.00     0.116 C 
BRANCH   2   3
ATOM      3  C   UNL     1      -2.890  -0.993  -1.716  1.00  0.00     0.182 C 
BRANCH   3   4
ATOM      4  N   UNL     1      -3.409  -1.682  -0.523  1.00  0.00    -0.343 N 
ATOM      5  C   UNL     1      -4.466  -1.171   0.199  1.00  0.00     0.220 C 
ATOM      6  O   UNL     1      -5.191  -0.280  -0.229  1.00  0.00    -0.275 OA
ATOM      7  H   UNL     1      -2.731  -2.226   0.000  1.00  0.00     0.164 HD
BRANCH   5   8
ATOM      8  C   UNL     1      -4.656  -1.855   1.540  1.00  0.00     0.102 C 
BRANCH   8   9
ATOM      9  C   UNL     1      -5.764  -1.196   2.366  1.00  0.00     0.040 C 
BRANCH   9  10
ATOM     10  C   UNL     1      -6.074  -1.931   3.678  1.00  0.00     0.162 C 
BRANCH  10  11
ATOM     11  N   UNL     1      -7.427  -1.515   4.116  1.00  0.00    -0.318 NA
ATOM     12  H   UNL     1      -8.133  -1.958   3.531  1.00  0.00     0.119 HD
ATOM     13  H   UNL     1      -7.577  -1.843   5.073  1.00  0.00     0.119 HD
ENDBRANCH  10  11
BRANCH  10  14
ATOM     14  C   UNL     1      -5.080  -1.629   4.815  1.00  0.00     0.320 C 
ATOM     15  O   UNL     1      -5.362  -1.434   5.990  1.00  0.00    -0.251 OA
BRANCH  14  16
ATOM     16  O   UNL     1      -3.785  -1.690   4.449  1.00  0.00    -0.480 OA
ATOM     17  H   UNL     1      -3.304  -1.489   5.280  1.00  0.00     0.296 HD
ENDBRANCH  14  16
ENDBRANCH  10  14
ENDBRANCH   9  10
ENDBRANCH   8   9
ENDBRANCH   5   8
ENDBRANCH   3   4
BRANCH   3  18
ATOM     18  C   UNL     1      -3.734  -1.295  -2.981  1.00  0.00     0.243 C 
ATOM     19  O   UNL     1      -3.229  -1.560  -4.071  1.00  0.00    -0.273 OA
ATOM     20  N   UNL     1      -5.093  -1.128  -2.830  1.00  0.00    -0.343 N 
ATOM     21  H   UNL     1      -5.387  -0.583  -2.018  1.00  0.00     0.164 HD
BRANCH  20  22
ATOM     22  C   UNL     1      -5.979  -1.144  -3.979  1.00  0.00     0.238 C 
BRANCH  22  23
ATOM     23  C   UNL     1      -6.049   0.223  -4.642  1.00  0.00     0.322 C 
ATOM     24  O   UNL     1      -5.652   1.287  -4.190  1.00  0.00    -0.250 OA
BRANCH  23  25
ATOM     25  O   UNL     1      -6.671   0.183  -5.840  1.00  0.00    -0.480 OA
ATOM     26  H   UNL     1      -6.641   1.114  -6.147  1.00  0.00     0.296 HD
ENDBRANCH  23  25
ENDBRANCH  22  23
ENDBRANCH  20  22
ENDBRANCH   3  18
ENDBRANCH   2   3
ENDBRANCH   1   2
BRANCH   1  27
ATOM     27  S   UNL     1      -0.419   0.683   0.028  1.00  0.00    -0.091 SA
BRANCH  27  28
ATOM     28  C   UNL     1       0.771   1.539  -1.077  1.00  0.00     0.116 C 
BRANCH  28  29
ATOM     29  C   UNL     1       2.223   1.061  -0.949  1.00  0.00     0.182 C 
BRANCH  29  30
ATOM     30  N   UNL     1       2.758   1.239   0.408  1.00  0.00    -0.343 N 
ATOM     31  C   UNL     1       3.490   0.249   1.021  1.00  0.00     0.220 C 
ATOM     32  O   UNL     1       3.565  -0.898   0.593  1.00  0.00    -0.275 OA
ATOM     33  H   UNL     1       2.930   2.196   0.701  1.00  0.00     0.164 HD
BRANCH  31  34
ATOM     34  C   UNL     1       4.208   0.715   2.272  1.00  0.00     0.102 C 
BRANCH  34  35
ATOM     35  C   UNL     1       5.485  -0.085   2.535  1.00  0.00     0.040 C 
BRANCH  35  36
ATOM     36  C   UNL     1       6.651   0.275   1.598  1.00  0.00     0.162 C 
BRANCH  36  37
ATOM     37  N   UNL     1       6.301   0.091   0.162  1.00  0.00    -0.318 NA
ATOM     38  H   UNL     1       7.189  -0.073  -0.329  1.00  0.00     0.119 HD
ATOM     39  H   UNL     1       5.815  -0.814   0.080  1.00  0.00     0.119 HD
ENDBRANCH  36  37
BRANCH  36  40
ATOM     40  C   UNL     1       7.883  -0.571   1.970  1.00  0.00     0.320 C 
ATOM     41  O   UNL     1       8.290  -0.813   3.095  1.00  0.00    -0.251 OA
BRANCH  40  42
ATOM     42  O   UNL     1       8.558  -1.035   0.892  1.00  0.00    -0.480 OA
ATOM     43  H   UNL     1       9.302  -1.541   1.284  1.00  0.00     0.296 HD
ENDBRANCH  40  42
ENDBRANCH  36  40
ENDBRANCH  35  36
ENDBRANCH  34  35
ENDBRANCH  31  34
ENDBRANCH  29  30
BRANCH  29  44
ATOM     44  C   UNL     1       3.127   1.893  -1.884  1.00  0.00     0.243 C 
ATOM     45  O   UNL     1       2.695   2.758  -2.641  1.00  0.00    -0.273 OA
ATOM     46  N   UNL     1       4.470   1.579  -1.808  1.00  0.00    -0.343 N 
ATOM     47  H   UNL     1       4.772   0.977  -1.041  1.00  0.00     0.164 HD
BRANCH  46  48
ATOM     48  C   UNL     1       5.461   2.535  -2.267  1.00  0.00     0.238 C 
BRANCH  48  49
ATOM     49  C   UNL     1       5.733   3.546  -1.159  1.00  0.00     0.322 C 
ATOM     50  O   UNL     1       5.161   3.634  -0.082  1.00  0.00    -0.250 OA
BRANCH  49  51
ATOM     51  O   UNL     1       6.726   4.403  -1.477  1.00  0.00    -0.480 OA
ATOM     52  H   UNL     1       6.783   5.005  -0.705  1.00  0.00     0.296 HD
ENDBRANCH  49  51
ENDBRANCH  48  49
ENDBRANCH  46  48
ENDBRANCH  29  44
ENDBRANCH  28  29
ENDBRANCH  27  28
ENDBRANCH   1  27
TORSDOF 27
