REMARK SMILES CC[N+]1(C)[C@@H]2C[C@@H](OC(=O)[C@H](CO)c3ccccc3)C[C@H]1[C@@H]1O[C@@H]12
REMARK SMILES IDX 9 1 10 2 8 3 7 4 3 5 21 6 5 7 20 8 22 9 6 10 24 11 23 12
REMARK SMILES IDX 4 13 2 14 1 15 11 16 12 17 13 18 14 20 15 21 19 22 16 23
REMARK SMILES IDX 18 24 17 25
REMARK H PARENT 13 19
ROOT
ATOM      1  C   UNL     1       1.279  -1.869  -1.312  1.00  0.00     0.316 C 
ATOM      2  O   UNL     1       0.712  -2.761  -1.933  1.00  0.00    -0.251 OA
ENDROOT
BRANCH   1   3
ATOM      3  O   UNL     1       0.686  -0.683  -0.991  1.00  0.00    -0.461 OA
BRANCH   3   4
ATOM      4  C   UNL     1      -0.695  -0.507  -1.374  1.00  0.00     0.188 C 
ATOM      5  N   UNL     1      -2.630   1.024   0.291  1.00  0.00    -0.317 N 
ATOM      6  C   UNL     1      -1.932  -0.253   0.878  1.00  0.00     0.221 C 
ATOM      7  C   UNL     1      -1.321   1.718  -0.231  1.00  0.00     0.221 C 
ATOM      8  C   UNL     1      -1.588  -1.187  -0.305  1.00  0.00     0.113 C 
ATOM      9  C   UNL     1      -0.629   0.201   1.516  1.00  0.00     0.212 C 
ATOM     10  C   UNL     1      -0.901   1.019  -1.541  1.00  0.00     0.113 C 
ATOM     11  C   UNL     1      -0.239   1.462   0.815  1.00  0.00     0.212 C 
ATOM     12  O   UNL     1      -0.610   1.453   2.201  1.00  0.00    -0.357 OA
ATOM     13  C   UNL     1      -3.252   1.895   1.411  1.00  0.00     0.335 C 
BRANCH   5  14
ATOM     14  C   UNL     1      -3.735   0.793  -0.752  1.00  0.00     0.260 C 
ATOM     15  C   UNL     1      -4.932   0.049  -0.175  1.00  0.00     0.071 C 
ENDBRANCH   5  14
ENDBRANCH   3   4
ENDBRANCH   1   3
BRANCH   1  16
ATOM     16  C   UNL     1       2.688  -1.983  -0.758  1.00  0.00     0.155 C 
BRANCH  16  17
ATOM     17  C   UNL     1       2.670  -3.026   0.370  1.00  0.00     0.176 C 
BRANCH  17  18
ATOM     18  O   UNL     1       1.708  -2.716   1.384  1.00  0.00    -0.395 OA
ATOM     19  H   UNL     1       1.801  -3.413   2.062  1.00  0.00     0.210 HD
ENDBRANCH  17  18
ENDBRANCH  16  17
BRANCH  16  20
ATOM     20  C   UNL     1       3.336  -0.639  -0.430  1.00  0.00    -0.032 A 
ATOM     21  C   UNL     1       3.860   0.132  -1.484  1.00  0.00     0.005 A 
ATOM     22  C   UNL     1       3.406  -0.118   0.871  1.00  0.00     0.005 A 
ATOM     23  C   UNL     1       4.439   1.379  -1.242  1.00  0.00     0.000 A 
ATOM     24  C   UNL     1       3.988   1.130   1.110  1.00  0.00     0.000 A 
ATOM     25  C   UNL     1       4.504   1.878   0.055  1.00  0.00     0.000 A 
ENDBRANCH  16  20
ENDBRANCH   1  16
TORSDOF 7
