REMARK SMILES COc1ccc(C(=O)c2ccccc2)c(O)c1
REMARK SMILES IDX 3 1 17 2 15 3 6 4 5 5 4 6 2 7 1 8 16 9 7 11 8 12 9 13 10 14
REMARK SMILES IDX 14 15 11 16 13 17 12 18
REMARK H PARENT 16 10
ROOT
ATOM      1  C   UNL     1       2.970  -0.484  -0.394  1.00  0.00     0.122 A 
ATOM      2  C   UNL     1       2.652  -1.275   0.713  1.00  0.00     0.093 A 
ATOM      3  C   UNL     1       1.323  -1.467   1.085  1.00  0.00     0.130 A 
ATOM      4  C   UNL     1       0.287  -0.849   0.373  1.00  0.00     0.065 A 
ATOM      5  C   UNL     1       0.605  -0.077  -0.752  1.00  0.00     0.020 A 
ATOM      6  C   UNL     1       1.942   0.108  -1.129  1.00  0.00     0.047 A 
ENDROOT
BRANCH   1   7
ATOM      7  O   UNL     1       4.308  -0.377  -0.656  1.00  0.00    -0.497 OA
ATOM      8  C   UNL     1       4.688   0.406  -1.780  1.00  0.00     0.278 C 
ENDBRANCH   1   7
BRANCH   3   9
ATOM      9  O   UNL     1       1.101  -2.281   2.164  1.00  0.00    -0.507 OA
ATOM     10  H   UNL     1       0.137  -2.480   2.194  1.00  0.00     0.293 HD
ENDBRANCH   3   9
BRANCH   4  11
ATOM     11  C   UNL     1      -1.121  -1.056   0.801  1.00  0.00     0.196 C 
ATOM     12  O   UNL     1      -1.402  -2.076   1.431  1.00  0.00    -0.288 OA
BRANCH  11  13
ATOM     13  C   UNL     1      -2.188  -0.070   0.513  1.00  0.00     0.023 A 
ATOM     14  C   UNL     1      -3.450  -0.544   0.138  1.00  0.00     0.012 A 
ATOM     15  C   UNL     1      -1.970   1.305   0.659  1.00  0.00     0.012 A 
ATOM     16  C   UNL     1      -4.481   0.358  -0.127  1.00  0.00     0.001 A 
ATOM     17  C   UNL     1      -3.005   2.203   0.393  1.00  0.00     0.001 A 
ATOM     18  C   UNL     1      -4.256   1.730  -0.004  1.00  0.00     0.000 A 
ENDBRANCH  11  13
ENDBRANCH   4  11
TORSDOF 4
