REMARK SMILES CCCCCCCCCCCCCCCC(=O)NCCO
REMARK SMILES IDX 10 1 9 2 8 3 7 4 6 5 5 6 4 7 3 8 2 9 1 10 11 11 12 12 13 13
REMARK SMILES IDX 14 14 15 15 16 16 17 17 18 18 19 20 20 21 21 22
REMARK H PARENT 18 19 21 23
ROOT
ATOM      1  C   UNL     1      -0.069   2.449   0.281  1.00  0.00     0.000 C 
ENDROOT
BRANCH   1   2
ATOM      2  C   UNL     1       0.901   1.839   1.298  1.00  0.00     0.000 C 
BRANCH   2   3
ATOM      3  C   UNL     1       1.490   0.476   0.922  1.00  0.00     0.000 C 
BRANCH   3   4
ATOM      4  C   UNL     1       2.235   0.423  -0.415  1.00  0.00    -0.000 C 
BRANCH   4   5
ATOM      5  C   UNL     1       3.406   1.400  -0.558  1.00  0.00    -0.000 C 
BRANCH   5   6
ATOM      6  C   UNL     1       4.502   1.285   0.506  1.00  0.00    -0.000 C 
BRANCH   6   7
ATOM      7  C   UNL     1       5.179  -0.086   0.536  1.00  0.00    -0.000 C 
BRANCH   7   8
ATOM      8  C   UNL     1       6.336  -0.110   1.538  1.00  0.00    -0.000 C 
BRANCH   8   9
ATOM      9  C   UNL     1       7.012  -1.480   1.573  1.00  0.00    -0.003 C 
ATOM     10  C   UNL     1       8.160  -1.510   2.570  1.00  0.00     0.004 C 
ENDBRANCH   8   9
ENDBRANCH   7   8
ENDBRANCH   6   7
ENDBRANCH   5   6
ENDBRANCH   4   5
ENDBRANCH   3   4
ENDBRANCH   2   3
ENDBRANCH   1   2
BRANCH   1  11
ATOM     11  C   UNL     1      -1.302   1.580   0.019  1.00  0.00     0.000 C 
BRANCH  11  12
ATOM     12  C   UNL     1      -2.286   2.287  -0.916  1.00  0.00     0.000 C 
BRANCH  12  13
ATOM     13  C   UNL     1      -3.584   1.503  -1.136  1.00  0.00     0.001 C 
BRANCH  13  14
ATOM     14  C   UNL     1      -3.379   0.197  -1.912  1.00  0.00     0.010 C 
BRANCH  14  15
ATOM     15  C   UNL     1      -4.701  -0.504  -2.224  1.00  0.00     0.100 C 
BRANCH  15  16
ATOM     16  C   UNL     1      -5.334  -1.171  -1.016  1.00  0.00     0.220 C 
ATOM     17  O   UNL     1      -4.778  -1.295   0.070  1.00  0.00    -0.275 OA
ATOM     18  N   UNL     1      -6.602  -1.647  -1.273  1.00  0.00    -0.354 N 
ATOM     19  H   UNL     1      -6.869  -1.787  -2.240  1.00  0.00     0.163 HD
BRANCH  18  20
ATOM     20  C   UNL     1      -7.309  -2.457  -0.296  1.00  0.00     0.144 C 
BRANCH  20  21
ATOM     21  C   UNL     1      -6.843  -3.912  -0.328  1.00  0.00     0.177 C 
BRANCH  21  22
ATOM     22  O   UNL     1      -7.157  -4.485  -1.599  1.00  0.00    -0.395 OA
ATOM     23  H   UNL     1      -6.802  -5.391  -1.588  1.00  0.00     0.210 HD
ENDBRANCH  21  22
ENDBRANCH  20  21
ENDBRANCH  18  20
ENDBRANCH  15  16
ENDBRANCH  14  15
ENDBRANCH  13  14
ENDBRANCH  12  13
ENDBRANCH  11  12
ENDBRANCH   1  11
TORSDOF 17
