REMARK SMILES Cc1cnc(C(=O)N[C@H]2CCCCC/C=C\[C@@H]3C[C@@]3(C(=O)NS(=O)(=O)C3CC3)NC(=O)[C@@H]3C[C@@H](Oc4nc5ccccc5c5ccccc45)CN3C2=O)cn1
REMARK SMILES IDX 32 1 33 2 34 3 50 4 51 5 52 6 53 7 9 8 8 9 6 10 7 11 5 13
REMARK SMILES IDX 2 14 55 15 3 16 54 17 4 18 1 19 10 20 11 21 12 22 30 24
REMARK SMILES IDX 29 25 31 26 19 28 18 29 17 30 20 31 21 32 22 33 23 35 24 36
REMARK SMILES IDX 25 37 26 38 27 39 28 40 16 41 15 42 14 43 13 44 35 46 36 47
REMARK SMILES IDX 37 48 49 49 38 50 48 51 44 52 39 53 43 54 47 55 45 56 40 57
REMARK SMILES IDX 42 58 46 59 41 60
REMARK H PARENT 8 12 29 27 22 34
REMARK Flexibility Score:  109.900
ROOT
ATOM      1  C   UNL     1       0.477  -0.152   2.072  1.00  0.00     0.178 C 
ATOM      2  C   UNL     1      -0.253  -1.333   2.691  1.00  0.00     0.082 C 
ATOM      3  C   UNL     1      -1.316  -1.713   1.655  1.00  0.00     0.197 C 
ATOM      4  C   UNL     1      -1.667  -0.370   1.002  1.00  0.00     0.165 C 
ATOM      5  N   UNL     1      -0.516   0.494   1.225  1.00  0.00    -0.325 N 
ENDROOT
BRANCH   5   6
ATOM      6  C   UNL     1      -0.350   1.798   0.829  1.00  0.00     0.245 C 
ATOM      7  O   UNL     1       0.662   2.425   1.171  1.00  0.00    -0.272 OA
BRANCH   6   8
ATOM      8  C   UNL     1      -1.405   2.416  -0.128  1.00  0.00     0.172 C 
BRANCH   8   9
ATOM      9  N   UNL     1      -1.306   3.867  -0.023  1.00  0.00    -0.339 N 
ATOM     10  C   UNL     1      -2.037   4.547   0.933  1.00  0.00     0.272 C 
ATOM     11  O   UNL     1      -2.998   4.068   1.525  1.00  0.00    -0.267 OA
ATOM     12  H   UNL     1      -0.403   4.294  -0.229  1.00  0.00     0.164 HD
BRANCH  10  13
ATOM     13  C   UNL     1      -1.547   5.917   1.240  1.00  0.00     0.146 A 
ATOM     14  C   UNL     1      -0.654   8.368   1.881  1.00  0.00     0.056 A 
ATOM     15  N   UNL     1      -1.779   7.942   2.510  1.00  0.00    -0.258 NA
ATOM     16  C   UNL     1       0.003   7.572   0.944  1.00  0.00     0.135 A 
ATOM     17  C   UNL     1      -2.209   6.700   2.172  1.00  0.00     0.145 A 
ATOM     18  N   UNL     1      -0.418   6.333   0.595  1.00  0.00    -0.248 NA
ATOM     19  C   UNL     1      -0.127   9.724   2.236  1.00  0.00     0.068 C 
ENDBRANCH  10  13
ENDBRANCH   8   9
BRANCH   8  20
ATOM     20  C   UNL     1      -1.231   1.948  -1.585  1.00  0.00     0.035 C 
BRANCH  20  21
ATOM     21  C   UNL     1       0.202   2.045  -2.112  1.00  0.00     0.003 C 
BRANCH  21  22
ATOM     22  C   UNL     1       0.355   1.396  -3.495  1.00  0.00     0.000 CG0
ATOM     23  G   UNL     1       1.831   1.222  -3.876  1.00  0.00     0.000 G0
ENDBRANCH  21  22
ENDBRANCH  20  21
ENDBRANCH   8  20
ENDBRANCH   6   8
ENDBRANCH   5   6
BRANCH   1  24
ATOM     24  C   UNL     1       1.650  -0.579   1.168  1.00  0.00     0.243 C 
ATOM     25  N   UNL     1       2.802   0.165   1.361  1.00  0.00    -0.339 N 
ATOM     26  O   UNL     1       1.546  -1.434   0.289  1.00  0.00    -0.273 OA
ATOM     27  H   UNL     1       2.683   1.049   1.850  1.00  0.00     0.164 HD
BRANCH  25  28
ATOM     28  C   UNL     1       3.964   0.062   0.483  1.00  0.00     0.127 C 
ATOM     29  C   UNL     1       4.926   1.253   0.482  1.00  0.00     0.050 C 
ATOM     30  C   UNL     1       4.046   1.023  -0.705  1.00  0.00     0.050 C 
BRANCH  28  31
ATOM     31  C   UNL     1       4.632  -1.306   0.386  1.00  0.00     0.259 C 
ATOM     32  O   UNL     1       5.702  -1.521   0.936  1.00  0.00    -0.271 OA
ATOM     33  N   UNL     1       3.940  -2.253  -0.368  1.00  0.00    -0.251 N 
ATOM     34  H   UNL     1       2.945  -2.077  -0.542  1.00  0.00     0.183 HD
BRANCH  33  35
ATOM     35  S   UNL     1       4.339  -3.855  -0.423  1.00  0.00     0.237 S 
ATOM     36  O   UNL     1       4.102  -4.413   0.890  1.00  0.00    -0.206 OA
ATOM     37  O   UNL     1       3.666  -4.396  -1.587  1.00  0.00    -0.206 OA
BRANCH  35  38
ATOM     38  C   UNL     1       6.131  -3.972  -0.714  1.00  0.00     0.129 C 
ATOM     39  C   UNL     1       6.569  -3.465  -2.065  1.00  0.00     0.023 C 
ATOM     40  C   UNL     1       6.553  -4.946  -1.779  1.00  0.00     0.023 C 
ENDBRANCH  35  38
ENDBRANCH  33  35
ENDBRANCH  28  31
BRANCH  30  41
ATOM     41  C   UNL     1       4.645   0.603  -1.980  1.00  0.00    -0.025 C 
ATOM     42  C   UNL     1       3.977   0.185  -3.068  1.00  0.00    -0.031 C 
BRANCH  42  43
ATOM     43  C   UNL     1       2.483   0.037  -3.151  1.00  0.00     0.027 C 
BRANCH  43  44
ATOM     44  C   UNL     1       1.831   1.222  -3.876  1.00  0.00     0.004 CG0
ATOM     45  G   UNL     1       0.355   1.396  -3.495  1.00  0.00     0.000 G0
ENDBRANCH  43  44
ENDBRANCH  42  43
ENDBRANCH  30  41
ENDBRANCH  25  28
ENDBRANCH   1  24
BRANCH   3  46
ATOM     46  O   UNL     1      -2.435  -2.272   2.345  1.00  0.00    -0.472 OA
BRANCH  46  47
ATOM     47  C   UNL     1      -3.373  -2.863   1.515  1.00  0.00     0.222 A 
ATOM     48  N   UNL     1      -2.986  -3.204   0.270  1.00  0.00    -0.213 NA
ATOM     49  C   UNL     1      -4.651  -3.091   2.040  1.00  0.00     0.045 A 
ATOM     50  C   UNL     1      -3.863  -3.835  -0.516  1.00  0.00     0.075 A 
ATOM     51  C   UNL     1      -5.023  -2.694   3.348  1.00  0.00     0.014 A 
ATOM     52  C   UNL     1      -5.590  -3.734   1.201  1.00  0.00    -0.004 A 
ATOM     53  C   UNL     1      -3.425  -4.213  -1.779  1.00  0.00     0.029 A 
ATOM     54  C   UNL     1      -5.186  -4.133  -0.118  1.00  0.00     0.008 A 
ATOM     55  C   UNL     1      -6.311  -2.911   3.833  1.00  0.00     0.001 A 
ATOM     56  C   UNL     1      -6.889  -3.945   1.734  1.00  0.00     0.009 A 
ATOM     57  C   UNL     1      -4.253  -4.883  -2.679  1.00  0.00     0.002 A 
ATOM     58  C   UNL     1      -6.018  -4.809  -1.050  1.00  0.00     0.011 A 
ATOM     59  C   UNL     1      -7.246  -3.538   3.024  1.00  0.00     0.001 A 
ATOM     60  C   UNL     1      -5.554  -5.183  -2.313  1.00  0.00     0.001 A 
ENDBRANCH  46  47
ENDBRANCH   3  46
TORSDOF 7
