REMARK SMILES C[C@H](/C=C/[C@H](C)C(C)(C)O)[C@H]1CC[C@H]2/C(=C/C=C3C[C@@H](O)C[C@H](O)C3)CCC[C@]12C
REMARK SMILES IDX 3 1 4 2 2 3 1 4 11 5 12 6 29 7 13 8 28 9 14 10 27 11 15 12
REMARK SMILES IDX 26 13 16 14 30 15 17 16 18 17 19 18 25 19 20 20 23 21 22 22
REMARK SMILES IDX 21 23 24 25 5 27 6 28 7 29 8 30 9 31 10 32
REMARK H PARENT 21 24 24 26 10 33
ROOT
ATOM      1  C   UNL     1      -3.704   0.658  -1.003  1.00  0.00    -0.027 C 
ATOM      2  C   UNL     1      -4.477   0.148  -0.029  1.00  0.00    -0.025 C 
ENDROOT
BRANCH   1   3
ATOM      3  C   UNL     1      -3.133   2.058  -1.085  1.00  0.00     0.012 C 
ATOM      4  C   UNL     1      -4.054   3.099  -0.421  1.00  0.00     0.012 C 
BRANCH   3   5
ATOM      5  C   UNL     1      -1.680   2.243  -0.577  1.00  0.00     0.002 C 
ATOM      6  C   UNL     1      -1.425   1.862   0.899  1.00  0.00     0.005 C 
ATOM      7  C   UNL     1      -0.494   1.583  -1.344  1.00  0.00    -0.023 C 
ATOM      8  C   UNL     1       0.080   1.565   1.010  1.00  0.00     0.009 C 
ATOM      9  C   UNL     1      -0.221   2.225  -2.726  1.00  0.00     0.008 C 
ATOM     10  C   UNL     1       0.659   1.936  -0.362  1.00  0.00     0.021 C 
ATOM     11  C   UNL     1       1.263   2.538  -2.976  1.00  0.00     0.005 C 
ATOM     12  C   UNL     1       1.995   1.387  -0.820  1.00  0.00    -0.067 C 
ATOM     13  C   UNL     1       2.233   1.551  -2.314  1.00  0.00     0.031 C 
ATOM     14  C   UNL     1       2.879   0.821   0.027  1.00  0.00    -0.001 C 
ATOM     15  C   UNL     1      -0.654   0.053  -1.518  1.00  0.00     0.012 C 
BRANCH  14  16
ATOM     16  C   UNL     1       4.151   0.239  -0.347  1.00  0.00    -0.001 C 
ATOM     17  C   UNL     1       5.080  -0.277   0.482  1.00  0.00    -0.065 C 
ATOM     18  C   UNL     1       6.346  -0.894  -0.074  1.00  0.00     0.063 C 
ATOM     19  C   UNL     1       5.009  -0.347   1.997  1.00  0.00     0.063 C 
ATOM     20  C   UNL     1       6.496  -2.348   0.390  1.00  0.00     0.121 C 
ATOM     21  C   UNL     1       5.191  -1.789   2.499  1.00  0.00     0.121 C 
ATOM     22  C   UNL     1       6.435  -2.458   1.914  1.00  0.00     0.064 C 
BRANCH  20  23
ATOM     23  O   UNL     1       7.752  -2.861  -0.051  1.00  0.00    -0.393 OA
ATOM     24  H   UNL     1       7.690  -3.003  -1.010  1.00  0.00     0.210 HD
ENDBRANCH  20  23
BRANCH  21  25
ATOM     25  O   UNL     1       4.032  -2.573   2.201  1.00  0.00    -0.393 OA
ATOM     26  H   UNL     1       3.696  -2.301   1.329  1.00  0.00     0.210 HD
ENDBRANCH  21  25
ENDBRANCH  14  16
ENDBRANCH   3   5
ENDBRANCH   1   3
BRANCH   2  27
ATOM     27  C   UNL     1      -5.068  -1.247  -0.071  1.00  0.00     0.039 C 
ATOM     28  C   UNL     1      -6.599  -1.132  -0.127  1.00  0.00     0.015 C 
BRANCH  27  29
ATOM     29  C   UNL     1      -4.574  -2.187   1.076  1.00  0.00     0.065 C 
ATOM     30  C   UNL     1      -3.049  -2.364   1.044  1.00  0.00     0.042 C 
ATOM     31  C   UNL     1      -5.003  -1.732   2.476  1.00  0.00     0.042 C 
BRANCH  29  32
ATOM     32  O   UNL     1      -5.147  -3.492   0.881  1.00  0.00    -0.390 OA
ATOM     33  H   UNL     1      -4.835  -3.827   0.022  1.00  0.00     0.211 HD
ENDBRANCH  29  32
ENDBRANCH  27  29
ENDBRANCH   2  27
TORSDOF 8
