REMARK SMILES Fc1ccc([C@@H]2CCNC[C@H]2COc2ccc3c(c2)OCO3)cc1
REMARK SMILES IDX 6 1 7 2 8 3 9 4 10 5 11 6 5 8 2 9 3 10 24 11 4 12 23 13 1 14
REMARK SMILES IDX 12 15 13 16 14 17 19 18 15 19 18 20 16 21 17 22 20 23 22 24
REMARK SMILES IDX 21 25
REMARK H PARENT 9 7
ROOT
ATOM      1  C   UNL     1      -1.666  -0.783   0.777  1.00  0.00     0.028 C 
ATOM      2  C   UNL     1      -2.608  -1.390   1.841  1.00  0.00     0.024 C 
ATOM      3  C   UNL     1      -2.949  -0.401   2.950  1.00  0.00     0.081 C 
ATOM      4  N   UNL     1      -1.761   0.095   3.639  1.00  0.00    -0.316 NA
ATOM      5  C   UNL     1      -0.607   0.331   2.769  1.00  0.00     0.088 C 
ATOM      6  C   UNL     1      -0.970   0.507   1.287  1.00  0.00     0.048 C 
ATOM      7  H   UNL     1      -1.995   0.940   4.160  1.00  0.00     0.122 HD
ENDROOT
BRANCH   1   8
ATOM      8  C   UNL     1      -2.374  -0.549  -0.553  1.00  0.00    -0.044 A 
ATOM      9  C   UNL     1      -3.616  -0.136  -3.024  1.00  0.00     0.123 A 
ATOM     10  C   UNL     1      -4.125   0.482  -1.890  1.00  0.00     0.039 A 
ATOM     11  C   UNL     1      -2.497  -0.955  -2.950  1.00  0.00     0.039 A 
ATOM     12  C   UNL     1      -3.506   0.277  -0.655  1.00  0.00     0.007 A 
ATOM     13  C   UNL     1      -1.877  -1.161  -1.717  1.00  0.00     0.007 A 
ATOM     14  F   UNL     1      -4.212   0.063  -4.208  1.00  0.00    -0.207 F 
ENDBRANCH   1   8
BRANCH   6  15
ATOM     15  C   UNL     1       0.277   0.865   0.457  1.00  0.00     0.235 C 
BRANCH  15  16
ATOM     16  O   UNL     1       1.229  -0.196   0.526  1.00  0.00    -0.493 OA
BRANCH  16  17
ATOM     17  C   UNL     1       2.377  -0.055  -0.205  1.00  0.00     0.123 A 
ATOM     18  C   UNL     1       2.716   1.049  -0.991  1.00  0.00     0.097 A 
ATOM     19  C   UNL     1       3.258  -1.153  -0.117  1.00  0.00     0.050 A 
ATOM     20  C   UNL     1       3.922   1.014  -1.662  1.00  0.00     0.169 A 
ATOM     21  C   UNL     1       4.474  -1.162  -0.807  1.00  0.00     0.054 A 
ATOM     22  C   UNL     1       4.777  -0.060  -1.574  1.00  0.00     0.166 A 
ATOM     23  O   UNL     1       4.408   1.997  -2.467  1.00  0.00    -0.453 OA
ATOM     24  O   UNL     1       5.906   0.112  -2.311  1.00  0.00    -0.454 OA
ATOM     25  C   UNL     1       5.665   1.417  -2.876  1.00  0.00     0.468 C 
ENDBRANCH  16  17
ENDBRANCH  15  16
ENDBRANCH   6  15
TORSDOF 4
