REMARK SMILES Nc1nc(=O)c2ncn(CCC(CO)CO)c2[nH]1
REMARK SMILES IDX 11 1 10 2 9 3 1 4 2 5 3 6 18 7 4 8 17 9 5 10 6 11 7 12 8 13
REMARK SMILES IDX 12 17 13 18 14 19 15 21 16 22
REMARK H PARENT 1 14 1 15 18 16 14 20 16 23
ROOT
ATOM      1  C   UNL     1      -1.382  -0.034   0.839  1.00  0.00     0.030 C 
ENDROOT
BRANCH   1   2
ATOM      2  C   UNL     1      -0.551  -1.277   0.508  1.00  0.00     0.126 C 
BRANCH   2   3
ATOM      3  N   UNL     1       0.801  -1.181   1.015  1.00  0.00    -0.317 N 
ATOM      4  N   UNL     1       2.879   2.111  -1.648  1.00  0.00    -0.369 N 
ATOM      5  C   UNL     1       2.968   1.183  -0.661  1.00  0.00     0.202 C 
ATOM      6  N   UNL     1       4.079   1.025  -0.005  1.00  0.00    -0.173 NA
ATOM      7  N   UNL     1       1.801   0.488  -0.471  1.00  0.00    -0.310 N 
ATOM      8  C   UNL     1       4.157   0.071   1.020  1.00  0.00     0.302 C 
ATOM      9  C   UNL     1       1.804  -0.405   0.530  1.00  0.00     0.146 A 
ATOM     10  O   UNL     1       5.192  -0.135   1.645  1.00  0.00    -0.265 OA
ATOM     11  C   UNL     1       2.912  -0.658   1.293  1.00  0.00     0.173 A 
ATOM     12  N   UNL     1       2.612  -1.606   2.250  1.00  0.00    -0.229 NA
ATOM     13  C   UNL     1       1.338  -1.898   2.055  1.00  0.00     0.202 A 
ATOM     14  H   UNL     1       2.410   1.779  -2.482  1.00  0.00     0.159 HD
ATOM     15  H   UNL     1       3.798   2.485  -1.869  1.00  0.00     0.159 HD
ATOM     16  H   UNL     1       0.950   0.847  -0.910  1.00  0.00     0.171 HD
ENDBRANCH   2   3
ENDBRANCH   1   2
BRANCH   1  17
ATOM     17  C   UNL     1      -2.437   0.329  -0.230  1.00  0.00     0.042 C 
BRANCH  17  18
ATOM     18  C   UNL     1      -1.820   0.673  -1.594  1.00  0.00     0.162 C 
BRANCH  18  19
ATOM     19  O   UNL     1      -0.668   1.496  -1.447  1.00  0.00    -0.396 OA
ATOM     20  H   UNL     1      -0.978   2.377  -1.158  1.00  0.00     0.210 HD
ENDBRANCH  18  19
ENDBRANCH  17  18
BRANCH  17  21
ATOM     21  C   UNL     1      -3.505  -0.756  -0.405  1.00  0.00     0.162 C 
BRANCH  21  22
ATOM     22  O   UNL     1      -4.077  -1.105   0.846  1.00  0.00    -0.396 OA
ATOM     23  H   UNL     1      -4.595  -0.344   1.164  1.00  0.00     0.210 HD
ENDBRANCH  21  22
ENDBRANCH  17  21
ENDBRANCH   1  17
TORSDOF 7
