REMARK SMILES OC1(c2ccc(Cl)c(C(F)(F)F)c2)CCN(CCCC(c2ccc(F)cc2)c2ccc(F)cc2)CC1
REMARK SMILES IDX 17 1 16 2 2 3 14 4 36 5 15 6 35 7 1 8 3 10 13 11 4 12 8 13
REMARK SMILES IDX 5 14 6 15 7 16 9 17 10 18 11 19 12 20 18 21 19 22 20 23
REMARK SMILES IDX 21 24 22 25 27 26 23 27 26 28 24 29 25 30 28 31 29 32 34 33
REMARK SMILES IDX 30 34 33 35 31 36 32 37
REMARK H PARENT 1 9
ROOT
ATOM      1  C   UNL     1      -0.603  -0.360   0.463  1.00  0.00     0.084 C 
ENDROOT
BRANCH   1   2
ATOM      2  N   UNL     1       0.841  -0.536   0.255  1.00  0.00    -0.303 NA
ATOM      3  C   UNL     1       3.520  -0.955  -0.114  1.00  0.00     0.092 C 
ATOM      4  C   UNL     1       3.135  -0.297   1.224  1.00  0.00     0.056 C 
ATOM      5  C   UNL     1       2.749  -0.298  -1.281  1.00  0.00     0.056 C 
ATOM      6  C   UNL     1       1.624  -0.388   1.490  1.00  0.00     0.088 C 
ATOM      7  C   UNL     1       1.387   0.258  -0.843  1.00  0.00     0.088 C 
BRANCH   3   8
ATOM      8  O   UNL     1       3.106  -2.333  -0.039  1.00  0.00    -0.385 OA
ATOM      9  H   UNL     1       2.127  -2.312  -0.027  1.00  0.00     0.211 HD
ENDBRANCH   3   8
BRANCH   3  10
ATOM     10  C   UNL     1       5.029  -0.912  -0.369  1.00  0.00    -0.016 A 
ATOM     11  C   UNL     1       5.740   0.303  -0.322  1.00  0.00     0.021 A 
ATOM     12  C   UNL     1       5.752  -2.073  -0.680  1.00  0.00     0.008 A 
ATOM     13  C   UNL     1       7.130   0.369  -0.560  1.00  0.00     0.074 A 
ATOM     14  C   UNL     1       7.127  -2.026  -0.921  1.00  0.00     0.021 A 
ATOM     15  C   UNL     1       7.813  -0.812  -0.861  1.00  0.00     0.053 A 
ATOM     16  Cl  UNL     1       9.509  -0.838  -1.178  1.00  0.00    -0.084 Cl
BRANCH  13  17
ATOM     17  C   UNL     1       7.842   1.693  -0.490  1.00  0.00     0.417 C 
ATOM     18  F   UNL     1       7.014   2.721  -0.134  1.00  0.00    -0.166 F 
ATOM     19  F   UNL     1       8.387   2.071  -1.679  1.00  0.00    -0.166 F 
ATOM     20  F   UNL     1       8.850   1.717   0.424  1.00  0.00    -0.166 F 
ENDBRANCH  13  17
ENDBRANCH   3  10
ENDBRANCH   1   2
BRANCH   1  21
ATOM     21  C   UNL     1      -1.087   1.084   0.654  1.00  0.00     0.016 C 
BRANCH  21  22
ATOM     22  C   UNL     1      -2.569   1.213   1.053  1.00  0.00     0.014 C 
BRANCH  22  23
ATOM     23  C   UNL     1      -3.587   0.869  -0.068  1.00  0.00     0.049 C 
BRANCH  23  24
ATOM     24  C   UNL     1      -3.786  -0.623  -0.328  1.00  0.00    -0.040 A 
ATOM     25  C   UNL     1      -4.005  -1.541   0.714  1.00  0.00     0.007 A 
ATOM     26  C   UNL     1      -3.786  -1.099  -1.653  1.00  0.00     0.007 A 
ATOM     27  C   UNL     1      -4.192  -2.897   0.440  1.00  0.00     0.039 A 
ATOM     28  C   UNL     1      -3.973  -2.456  -1.924  1.00  0.00     0.039 A 
ATOM     29  C   UNL     1      -4.171  -3.343  -0.875  1.00  0.00     0.123 A 
ATOM     30  F   UNL     1      -4.351  -4.644  -1.132  1.00  0.00    -0.207 F 
ENDBRANCH  23  24
BRANCH  23  31
ATOM     31  C   UNL     1      -4.934   1.564   0.146  1.00  0.00    -0.040 A 
ATOM     32  C   UNL     1      -5.561   2.202  -0.940  1.00  0.00     0.007 A 
ATOM     33  C   UNL     1      -5.588   1.558   1.390  1.00  0.00     0.007 A 
ATOM     34  C   UNL     1      -6.800   2.827  -0.782  1.00  0.00     0.039 A 
ATOM     35  C   UNL     1      -6.827   2.184   1.546  1.00  0.00     0.039 A 
ATOM     36  C   UNL     1      -7.421   2.813   0.459  1.00  0.00     0.123 A 
ATOM     37  F   UNL     1      -8.610   3.411   0.611  1.00  0.00    -0.207 F 
ENDBRANCH  23  31
ENDBRANCH  22  23
ENDBRANCH  21  22
ENDBRANCH   1  21
TORSDOF 9
