REMARK SMILES N=C(N)c1ccc(OCCCCCOc2ccc(C(=N)N)cc2)cc1
REMARK SMILES IDX 11 1 10 2 9 3 8 4 7 5 4 6 5 7 25 8 6 9 24 10 2 11 3 12 1 13
REMARK SMILES IDX 12 17 13 18 14 19 15 20 16 21 23 22 17 23 22 24 18 25 19 26
REMARK SMILES IDX 21 27 20 28
REMARK H PARENT 3 14 3 15 1 16 21 29 21 30 20 31
ROOT
ATOM      1  C   UNL     1       0.072  -0.607   0.067  1.00  0.00     0.007 C 
ENDROOT
BRANCH   1   2
ATOM      2  C   UNL     1       0.832  -1.036  -1.192  1.00  0.00     0.042 C 
BRANCH   2   3
ATOM      3  C   UNL     1       2.196  -0.356  -1.305  1.00  0.00     0.229 C 
BRANCH   3   4
ATOM      4  O   UNL     1       3.002  -0.751  -0.196  1.00  0.00    -0.494 OA
BRANCH   4   5
ATOM      5  C   UNL     1       4.255  -0.212  -0.108  1.00  0.00     0.119 A 
ATOM      6  C   UNL     1       6.854   0.750   0.321  1.00  0.00     0.016 A 
ATOM      7  C   UNL     1       6.144   1.128  -0.823  1.00  0.00     0.016 A 
ATOM      8  C   UNL     1       6.269  -0.117   1.247  1.00  0.00     0.016 A 
ATOM      9  C   UNL     1       4.846   0.647  -1.036  1.00  0.00     0.047 A 
ATOM     10  C   UNL     1       4.973  -0.592   1.029  1.00  0.00     0.047 A 
BRANCH   6  11
ATOM     11  C   UNL     1       8.237   1.246   0.550  1.00  0.00     0.122 C 
ATOM     12  N   UNL     1       9.162   0.445   1.149  1.00  0.00    -0.384 N 
ATOM     13  N   UNL     1       8.625   2.429   0.194  1.00  0.00    -0.284 NA
ATOM     14  H   UNL     1       9.115  -0.539   0.911  1.00  0.00     0.158 HD
ATOM     15  H   UNL     1      10.096   0.828   1.038  1.00  0.00     0.158 HD
ATOM     16  H   UNL     1       7.851   2.970  -0.199  1.00  0.00     0.189 HD
ENDBRANCH   6  11
ENDBRANCH   4   5
ENDBRANCH   3   4
ENDBRANCH   2   3
ENDBRANCH   1   2
BRANCH   1  17
ATOM     17  C   UNL     1      -1.307  -1.263   0.132  1.00  0.00     0.042 C 
BRANCH  17  18
ATOM     18  C   UNL     1      -2.059  -0.864   1.401  1.00  0.00     0.229 C 
BRANCH  18  19
ATOM     19  O   UNL     1      -3.331  -1.509   1.454  1.00  0.00    -0.494 OA
BRANCH  19  20
ATOM     20  C   UNL     1      -4.408  -0.898   0.876  1.00  0.00     0.119 A 
ATOM     21  C   UNL     1      -5.620  -1.570   1.061  1.00  0.00     0.047 A 
ATOM     22  C   UNL     1      -4.393   0.283   0.135  1.00  0.00     0.047 A 
ATOM     23  C   UNL     1      -6.807  -1.066   0.523  1.00  0.00     0.016 A 
ATOM     24  C   UNL     1      -5.581   0.795  -0.405  1.00  0.00     0.016 A 
ATOM     25  C   UNL     1      -6.794   0.127  -0.205  1.00  0.00     0.016 A 
BRANCH  25  26
ATOM     26  C   UNL     1      -8.068   0.664  -0.768  1.00  0.00     0.122 C 
ATOM     27  N   UNL     1      -8.176   1.981  -1.114  1.00  0.00    -0.384 N 
ATOM     28  N   UNL     1      -9.083  -0.124  -0.913  1.00  0.00    -0.284 NA
ATOM     29  H   UNL     1      -9.122   2.334  -1.184  1.00  0.00     0.158 HD
ATOM     30  H   UNL     1      -7.586   2.619  -0.589  1.00  0.00     0.158 HD
ATOM     31  H   UNL     1      -9.861   0.382  -1.338  1.00  0.00     0.189 HD
ENDBRANCH  25  26
ENDBRANCH  19  20
ENDBRANCH  18  19
ENDBRANCH  17  18
ENDBRANCH   1  17
TORSDOF 10
