REMARK SMILES CCC(CC)[C@H](NC(C)=O)[C@@H]1[C@H](O)[C@@H](C(=O)O)C[C@H]1NC(=N)N
REMARK SMILES IDX 11 1 12 2 14 3 18 4 19 5 6 6 3 7 2 8 1 9 4 10 5 11 7 12 8 13
REMARK SMILES IDX 10 14 9 16 13 17 20 19 21 20 23 21 22 22 15 27 16 28 17 29
REMARK H PARENT 7 15 13 18 20 23 23 24 23 25 22 26 17 30
ROOT
ATOM      1  C   UNL     1       0.575   0.388  -0.293  1.00  0.00     0.064 C 
ATOM      2  C   UNL     1       0.688   1.852  -0.731  1.00  0.00     0.136 C 
ATOM      3  C   UNL     1       2.193   2.138  -0.701  1.00  0.00     0.130 C 
ATOM      4  C   UNL     1       2.838   0.838  -1.192  1.00  0.00     0.043 C 
ATOM      5  C   UNL     1       1.757  -0.246  -1.059  1.00  0.00     0.090 C 
ENDROOT
BRANCH   1   6
ATOM      6  C   UNL     1      -0.769  -0.334  -0.566  1.00  0.00     0.092 C 
BRANCH   6   7
ATOM      7  C   UNL     1      -2.049   0.291   0.092  1.00  0.00     0.011 C 
BRANCH   7   8
ATOM      8  C   UNL     1      -2.681   1.460  -0.698  1.00  0.00     0.002 C 
ATOM      9  C   UNL     1      -3.075   1.107  -2.127  1.00  0.00     0.004 C 
ENDBRANCH   7   8
BRANCH   7  10
ATOM     10  C   UNL     1      -1.807   0.672   1.574  1.00  0.00     0.002 C 
ATOM     11  C   UNL     1      -3.086   0.937   2.360  1.00  0.00     0.004 C 
ENDBRANCH   7  10
ENDBRANCH   6   7
BRANCH   6  12
ATOM     12  N   UNL     1      -0.653  -1.728  -0.093  1.00  0.00    -0.353 N 
ATOM     13  C   UNL     1      -1.379  -2.763  -0.634  1.00  0.00     0.217 C 
ATOM     14  O   UNL     1      -2.098  -2.652  -1.621  1.00  0.00    -0.275 OA
ATOM     15  H   UNL     1      -0.179  -1.874   0.792  1.00  0.00     0.163 HD
ATOM     16  C   UNL     1      -1.185  -4.080   0.068  1.00  0.00     0.114 C 
ENDBRANCH   6  12
ENDBRANCH   1   6
BRANCH   2  17
ATOM     17  O   UNL     1       0.217   2.001  -2.072  1.00  0.00    -0.392 OA
ATOM     18  H   UNL     1       0.201   2.953  -2.275  1.00  0.00     0.210 HD
ENDBRANCH   2  17
BRANCH   5  19
ATOM     19  N   UNL     1       2.273  -1.471  -0.457  1.00  0.00    -0.354 N 
ATOM     20  C   UNL     1       2.747  -1.582   0.804  1.00  0.00     0.185 C 
ATOM     21  N   UNL     1       3.039  -2.865   1.095  1.00  0.00    -0.370 N 
ATOM     22  N   UNL     1       2.908  -0.623   1.636  1.00  0.00    -0.270 NA
ATOM     23  H   UNL     1       1.732  -2.278  -0.751  1.00  0.00     0.163 HD
ATOM     24  H   UNL     1       3.636  -2.982   1.904  1.00  0.00     0.159 HD
ATOM     25  H   UNL     1       3.436  -3.352   0.299  1.00  0.00     0.159 HD
ATOM     26  H   UNL     1       3.274  -0.986   2.516  1.00  0.00     0.191 HD
ENDBRANCH   5  19
BRANCH   3  27
ATOM     27  C   UNL     1       2.742   2.528   0.653  1.00  0.00     0.309 C 
ATOM     28  O   UNL     1       3.920   2.739   0.902  1.00  0.00    -0.252 OA
BRANCH  27  29
ATOM     29  O   UNL     1       1.818   2.698   1.613  1.00  0.00    -0.481 OA
ATOM     30  H   UNL     1       2.360   2.858   2.415  1.00  0.00     0.296 HD
ENDBRANCH  27  29
ENDBRANCH   3  27
TORSDOF 9
