REMARK SMILES N#Cc1ccc2c(c1)N(CCCN1CCC(O)CC1)c1ccccc1S2
REMARK SMILES IDX 12 1 13 2 16 3 15 4 18 5 14 6 19 7 17 8 11 10 10 11 9 12
REMARK SMILES IDX 20 13 7 14 21 15 25 16 8 17 6 18 22 19 24 20 26 21 3 22 5 23
REMARK SMILES IDX 23 24 4 25 2 26 1 27
REMARK H PARENT 17 9
ROOT
ATOM      1  C   UNL     1       1.515  -0.827   0.739  1.00  0.00     0.086 C 
ENDROOT
BRANCH   1   2
ATOM      2  N   UNL     1       2.545  -0.373  -0.213  1.00  0.00    -0.303 NA
ATOM      3  C   UNL     1       4.727  -0.718  -2.129  1.00  0.00     0.117 C 
ATOM      4  C   UNL     1       4.980  -0.313  -0.684  1.00  0.00     0.047 C 
ATOM      5  C   UNL     1       3.334  -0.283  -2.562  1.00  0.00     0.047 C 
ATOM      6  C   UNL     1       3.874  -0.835   0.228  1.00  0.00     0.087 C 
ATOM      7  C   UNL     1       2.271  -0.801  -1.594  1.00  0.00     0.087 C 
BRANCH   3   8
ATOM      8  O   UNL     1       5.715  -0.117  -2.962  1.00  0.00    -0.393 OA
ATOM      9  H   UNL     1       5.489  -0.324  -3.885  1.00  0.00     0.210 HD
ENDBRANCH   3   8
ENDBRANCH   1   2
BRANCH   1  10
ATOM     10  C   UNL     1       0.129  -0.229   0.467  1.00  0.00     0.037 C 
BRANCH  10  11
ATOM     11  C   UNL     1      -0.828  -0.516   1.635  1.00  0.00     0.124 C 
BRANCH  11  12
ATOM     12  N   UNL     1      -2.216  -0.055   1.347  1.00  0.00    -0.340 N 
ATOM     13  C   UNL     1      -2.930  -0.931   0.481  1.00  0.00     0.055 A 
ATOM     14  C   UNL     1      -2.353   1.362   1.326  1.00  0.00     0.057 A 
ATOM     15  C   UNL     1      -3.078  -2.291   0.822  1.00  0.00     0.027 A 
ATOM     16  C   UNL     1      -3.549  -0.480  -0.699  1.00  0.00     0.036 A 
ATOM     17  C   UNL     1      -1.958   2.122   2.446  1.00  0.00     0.047 A 
ATOM     18  C   UNL     1      -2.920   2.044   0.233  1.00  0.00     0.036 A 
ATOM     19  C   UNL     1      -3.770  -3.182  -0.002  1.00  0.00     0.002 A 
ATOM     20  C   UNL     1      -4.241  -1.382  -1.524  1.00  0.00     0.017 A 
ATOM     21  S   UNL     1      -3.459   1.212  -1.245  1.00  0.00    -0.086 SA
ATOM     22  C   UNL     1      -2.084   3.518   2.469  1.00  0.00     0.054 A 
ATOM     23  C   UNL     1      -3.044   3.445   0.259  1.00  0.00     0.019 A 
ATOM     24  C   UNL     1      -4.343  -2.729  -1.182  1.00  0.00     0.001 A 
ATOM     25  C   UNL     1      -2.624   4.179   1.369  1.00  0.00     0.021 A 
ATOM     26  C   UNL     1      -1.663   4.260   3.622  1.00  0.00     0.099 C 
ATOM     27  N   UNL     1      -1.315   4.862   4.552  1.00  0.00    -0.192 NA
ENDBRANCH  11  12
ENDBRANCH  10  11
ENDBRANCH   1  10
TORSDOF 5
