REMARK SMILES O=C1[C@H]2CCCC[C@H]2C(=O)N1CCCCN1CCN(c2nsc3ccccc23)CC1
REMARK SMILES IDX 14 1 13 2 12 3 11 4 1 5 2 6 3 7 4 8 8 9 9 10 5 11 7 12 10 13
REMARK SMILES IDX 6 14 15 15 16 16 17 17 30 18 18 19 29 20 19 21 20 22 21 23
REMARK SMILES IDX 28 24 22 25 27 26 23 27 26 28 24 29 25 30
REMARK H PARENT
ROOT
ATOM      1  C   UNL     1      -0.601  -0.851   0.278  1.00  0.00     0.017 C 
ENDROOT
BRANCH   1   2
ATOM      2  C   UNL     1      -1.290  -2.074   0.890  1.00  0.00     0.023 C 
BRANCH   2   3
ATOM      3  C   UNL     1      -2.507  -2.539   0.084  1.00  0.00     0.128 C 
BRANCH   3   4
ATOM      4  N   UNL     1      -3.565  -1.546   0.039  1.00  0.00    -0.282 N 
ATOM      5  O   UNL     1      -3.302  -0.868  -2.157  1.00  0.00    -0.274 OA
ATOM      6  C   UNL     1      -3.852  -0.799  -1.067  1.00  0.00     0.233 C 
ATOM      7  C   UNL     1      -4.967   0.160  -0.734  1.00  0.00     0.091 C 
ATOM      8  C   UNL     1      -6.090   0.092  -1.765  1.00  0.00     0.014 C 
ATOM      9  C   UNL     1      -5.398  -0.237   0.681  1.00  0.00     0.091 C 
ATOM     10  C   UNL     1      -4.404  -1.295   1.086  1.00  0.00     0.233 C 
ATOM     11  C   UNL     1      -7.358   0.751  -1.235  1.00  0.00     0.001 C 
ATOM     12  C   UNL     1      -6.823  -0.779   0.749  1.00  0.00     0.014 C 
ATOM     13  O   UNL     1      -4.385  -1.842   2.179  1.00  0.00    -0.274 OA
ATOM     14  C   UNL     1      -7.824   0.176   0.104  1.00  0.00     0.001 C 
ENDBRANCH   3   4
ENDBRANCH   2   3
ENDBRANCH   1   2
BRANCH   1  15
ATOM     15  C   UNL     1       0.648  -0.463   1.083  1.00  0.00     0.084 C 
BRANCH  15  16
ATOM     16  N   UNL     1       1.255   0.789   0.611  1.00  0.00    -0.300 NA
ATOM     17  C   UNL     1       2.335   1.249   1.515  1.00  0.00     0.106 C 
ATOM     18  C   UNL     1       1.754   0.672  -0.784  1.00  0.00     0.106 C 
ATOM     19  C   UNL     1       3.762   0.829   1.100  1.00  0.00     0.133 C 
ATOM     20  C   UNL     1       2.928   1.621  -1.098  1.00  0.00     0.133 C 
ATOM     21  N   UNL     1       4.113   1.307  -0.262  1.00  0.00    -0.353 N 
BRANCH  21  22
ATOM     22  C   UNL     1       5.144   0.628  -0.870  1.00  0.00     0.150 A 
ATOM     23  N   UNL     1       4.971  -0.203  -1.898  1.00  0.00    -0.174 NA
ATOM     24  C   UNL     1       6.519   0.784  -0.418  1.00  0.00     0.037 A 
ATOM     25  S   UNL     1       6.417  -0.859  -2.332  1.00  0.00    -0.034 S 
ATOM     26  C   UNL     1       7.112   1.593   0.586  1.00  0.00     0.013 A 
ATOM     27  C   UNL     1       7.367  -0.032  -1.170  1.00  0.00     0.057 A 
ATOM     28  C   UNL     1       8.491   1.541   0.820  1.00  0.00     0.001 A 
ATOM     29  C   UNL     1       8.754  -0.094  -0.945  1.00  0.00     0.021 A 
ATOM     30  C   UNL     1       9.300   0.703   0.064  1.00  0.00     0.002 A 
ENDBRANCH  21  22
ENDBRANCH  15  16
ENDBRANCH   1  15
TORSDOF 6
