REMARK SMILES N[C@@H](Cc1ccccc1)C(=O)O
REMARK SMILES IDX 10 1 11 2 2 3 1 4 3 7 4 8 5 9 9 10 6 11 8 12 7 13 12 14
REMARK H PARENT 1 5 1 6 12 15
ROOT
ATOM      1  C   UNL     1      -2.945   0.720  -0.488  1.00  0.00     0.320 C 
ATOM      2  O   UNL     1      -4.037   0.179  -0.390  1.00  0.00    -0.251 OA
ENDROOT
BRANCH   1   3
ATOM      3  C   UNL     1      -1.629   0.225   0.117  1.00  0.00     0.166 C 
BRANCH   3   4
ATOM      4  N   UNL     1      -1.913  -0.863   1.092  1.00  0.00    -0.318 NA
ATOM      5  H   UNL     1      -2.478  -1.572   0.617  1.00  0.00     0.119 HD
ATOM      6  H   UNL     1      -2.535  -0.489   1.811  1.00  0.00     0.119 HD
ENDBRANCH   3   4
BRANCH   3   7
ATOM      7  C   UNL     1      -0.698  -0.253  -1.010  1.00  0.00     0.066 C 
BRANCH   7   8
ATOM      8  C   UNL     1       0.764  -0.227  -0.625  1.00  0.00    -0.046 A 
ATOM      9  C   UNL     1       1.321  -1.265   0.134  1.00  0.00     0.004 A 
ATOM     10  C   UNL     1       1.579   0.848  -1.007  1.00  0.00     0.004 A 
ATOM     11  C   UNL     1       2.669  -1.233   0.495  1.00  0.00     0.000 A 
ATOM     12  C   UNL     1       2.927   0.877  -0.646  1.00  0.00     0.000 A 
ATOM     13  C   UNL     1       3.472  -0.163   0.104  1.00  0.00     0.000 A 
ENDBRANCH   7   8
ENDBRANCH   3   7
ENDBRANCH   1   3
BRANCH   1  14
ATOM     14  O   UNL     1      -2.818   1.877  -1.167  1.00  0.00    -0.480 OA
ATOM     15  H   UNL     1      -3.728   2.077  -1.474  1.00  0.00     0.296 HD
ENDBRANCH   1  14
TORSDOF 5
