REMARK SMILES c1ccc(C2(N3CCCCC3)CCCCC2)cc1
REMARK SMILES IDX 5 1 12 2 13 3 14 4 15 5 16 6 6 7 9 8 8 9 10 10 7 11 11 12
REMARK SMILES IDX 4 13 3 14 17 15 2 16 18 17 1 18
REMARK H PARENT
ROOT
ATOM      1  C   UNL     1      -0.477  -0.183   0.072  1.00  0.00     0.046 C 
ATOM      2  C   UNL     1      -1.238  -0.105  -1.304  1.00  0.00     0.027 C 
ATOM      3  C   UNL     1      -1.541  -1.458  -1.945  1.00  0.00     0.002 C 
ATOM      4  C   UNL     1      -2.396  -2.345  -1.042  1.00  0.00     0.000 C 
ATOM      5  C   UNL     1      -2.201  -2.068   0.447  1.00  0.00     0.002 C 
ATOM      6  C   UNL     1      -0.792  -1.559   0.751  1.00  0.00     0.027 C 
ENDROOT
BRANCH   1   7
ATOM      7  N   UNL     1       1.005  -0.027  -0.074  1.00  0.00    -0.294 NA
ATOM      8  C   UNL     1       3.739   0.414  -0.366  1.00  0.00     0.003 C 
ATOM      9  C   UNL     1       3.188  -0.832  -1.039  1.00  0.00     0.016 C 
ATOM     10  C   UNL     1       3.112   0.609   1.015  1.00  0.00     0.016 C 
ATOM     11  C   UNL     1       1.655  -0.779  -1.155  1.00  0.00     0.085 C 
ATOM     12  C   UNL     1       1.766  -0.112   1.176  1.00  0.00     0.085 C 
ENDBRANCH   1   7
BRANCH   1  13
ATOM     13  C   UNL     1      -0.998   1.056   0.870  1.00  0.00    -0.028 A 
ATOM     14  C   UNL     1      -1.781   0.967   2.033  1.00  0.00     0.005 A 
ATOM     15  C   UNL     1      -0.671   2.352   0.410  1.00  0.00     0.005 A 
ATOM     16  C   UNL     1      -2.222   2.116   2.699  1.00  0.00     0.000 A 
ATOM     17  C   UNL     1      -1.110   3.498   1.075  1.00  0.00     0.000 A 
ATOM     18  C   UNL     1      -1.888   3.380   2.221  1.00  0.00     0.000 A 
ENDBRANCH   1  13
TORSDOF 2
