REMARK SMILES CN(CC(O)c1cccc(O)c1)c1nc2c(c(=O)n(C)c(=O)n2C)n1C
REMARK SMILES IDX 3 1 2 2 1 3 13 4 14 5 25 6 15 7 16 8 23 9 17 10 21 11 18 12
REMARK SMILES IDX 19 13 22 14 26 15 24 16 20 17 4 18 5 19 6 21 12 22 7 23
REMARK SMILES IDX 10 24 8 25 9 26 11 27
REMARK H PARENT 5 20 11 28
ROOT
ATOM      1  C   UNL     1       1.619   1.363   0.098  1.00  0.00     0.156 C 
ENDROOT
BRANCH   1   2
ATOM      2  N   UNL     1       0.421   1.860  -0.637  1.00  0.00    -0.342 N 
ATOM      3  C   UNL     1       0.672   2.115  -2.060  1.00  0.00     0.147 C 
BRANCH   2   4
ATOM      4  C   UNL     1      -0.771   1.248  -0.377  1.00  0.00     0.207 A 
ATOM      5  N   UNL     1      -1.510   0.577  -1.241  1.00  0.00    -0.194 NA
ATOM      6  N   UNL     1      -1.387   1.289   0.861  1.00  0.00    -0.307 N 
ATOM      7  C   UNL     1      -2.562   0.108  -0.520  1.00  0.00     0.170 A 
ATOM      8  C   UNL     1      -2.514   0.515   0.777  1.00  0.00     0.153 A 
ATOM      9  N   UNL     1      -3.584  -0.675  -1.000  1.00  0.00    -0.279 N 
ATOM     10  C   UNL     1      -3.498   0.157   1.738  1.00  0.00     0.282 C 
ATOM     11  C   UNL     1      -4.605  -1.068  -0.135  1.00  0.00     0.332 C 
ATOM     12  O   UNL     1      -3.475   0.547   2.902  1.00  0.00    -0.267 OA
ATOM     13  N   UNL     1      -4.493  -0.674   1.213  1.00  0.00    -0.261 N 
ATOM     14  O   UNL     1      -5.572  -1.729  -0.528  1.00  0.00    -0.247 OA
ATOM     15  C   UNL     1      -0.984   2.059   2.012  1.00  0.00     0.154 C 
ATOM     16  C   UNL     1      -3.619  -1.047  -2.402  1.00  0.00     0.157 C 
ATOM     17  C   UNL     1      -5.556  -1.095   2.105  1.00  0.00     0.159 C 
ENDBRANCH   2   4
ENDBRANCH   1   2
BRANCH   1  18
ATOM     18  C   UNL     1       1.824  -0.173   0.003  1.00  0.00     0.164 C 
BRANCH  18  19
ATOM     19  O   UNL     1       1.067  -0.837   1.025  1.00  0.00    -0.387 OA
ATOM     20  H   UNL     1       1.197  -1.790   0.877  1.00  0.00     0.211 HD
ENDBRANCH  18  19
BRANCH  18  21
ATOM     21  C   UNL     1       3.281  -0.549   0.178  1.00  0.00    -0.014 A 
ATOM     22  C   UNL     1       4.053  -0.903  -0.938  1.00  0.00     0.052 A 
ATOM     23  C   UNL     1       3.893  -0.526   1.442  1.00  0.00     0.007 A 
ATOM     24  C   UNL     1       5.397  -1.228  -0.784  1.00  0.00     0.115 A 
ATOM     25  C   UNL     1       5.243  -0.856   1.586  1.00  0.00     0.004 A 
ATOM     26  C   UNL     1       6.000  -1.209   0.469  1.00  0.00     0.046 A 
BRANCH  24  27
ATOM     27  O   UNL     1       6.098  -1.561  -1.905  1.00  0.00    -0.508 OA
ATOM     28  H   UNL     1       7.012  -1.767  -1.650  1.00  0.00     0.293 HD
ENDBRANCH  24  27
ENDBRANCH  18  21
ENDBRANCH   1  18
TORSDOF 6
