REMARK SMILES NCC(O)c1ccccc1
REMARK SMILES IDX 2 1 1 2 3 5 4 6 5 8 6 9 10 10 7 11 9 12 8 13
REMARK H PARENT 1 3 1 4 4 7
ROOT
ATOM      1  C   UNL     1       2.090   0.971  -0.063  1.00  0.00     0.114 C 
ENDROOT
BRANCH   1   2
ATOM      2  N   UNL     1       2.085   1.224  -1.516  1.00  0.00    -0.328 NA
ATOM      3  H   UNL     1       2.449   0.383  -1.969  1.00  0.00     0.118 HD
ATOM      4  H   UNL     1       2.754   1.964  -1.723  1.00  0.00     0.118 HD
ENDBRANCH   1   2
BRANCH   1   5
ATOM      5  C   UNL     1       1.338  -0.321   0.350  1.00  0.00     0.158 C 
BRANCH   5   6
ATOM      6  O   UNL     1       1.765  -1.387  -0.513  1.00  0.00    -0.387 OA
ATOM      7  H   UNL     1       1.082  -1.454  -1.205  1.00  0.00     0.211 HD
ENDBRANCH   5   6
BRANCH   5   8
ATOM      8  C   UNL     1      -0.179  -0.282   0.372  1.00  0.00    -0.018 A 
ATOM      9  C   UNL     1      -0.863  -1.301   1.058  1.00  0.00     0.006 A 
ATOM     10  C   UNL     1      -0.937   0.700  -0.281  1.00  0.00     0.006 A 
ATOM     11  C   UNL     1      -2.258  -1.328   1.104  1.00  0.00     0.000 A 
ATOM     12  C   UNL     1      -2.334   0.673  -0.235  1.00  0.00     0.000 A 
ATOM     13  C   UNL     1      -2.994  -0.339   0.459  1.00  0.00     0.000 A 
ENDBRANCH   5   8
ENDBRANCH   1   5
TORSDOF 4
