REMARK SMILES CC1NCCOC1c1ccccc1
REMARK SMILES IDX 1 1 2 2 3 3 4 4 5 5 6 6 7 7 8 9 9 10 13 11 10 12 12 13 11 14
REMARK H PARENT 3 8
ROOT
ATOM      1  C   UNL     1      -1.052  -1.911  -0.629  1.00  0.00     0.027 C 
ATOM      2  C   UNL     1      -1.289  -0.685   0.259  1.00  0.00     0.084 C 
ATOM      3  N   UNL     1      -2.741  -0.374   0.244  1.00  0.00    -0.309 NA
ATOM      4  C   UNL     1      -2.989   1.049   0.522  1.00  0.00     0.109 C 
ATOM      5  C   UNL     1      -1.874   1.691   1.351  1.00  0.00     0.176 C 
ATOM      6  O   UNL     1      -0.630   1.713   0.646  1.00  0.00    -0.371 OA
ATOM      7  C   UNL     1      -0.391   0.532  -0.150  1.00  0.00     0.165 C 
ATOM      8  H   UNL     1      -3.149  -0.609  -0.660  1.00  0.00     0.123 HD
ENDROOT
BRANCH   7   9
ATOM      9  C   UNL     1       1.094   0.234  -0.058  1.00  0.00    -0.018 A 
ATOM     10  C   UNL     1       1.721   0.062   1.186  1.00  0.00     0.006 A 
ATOM     11  C   UNL     1       1.866   0.111  -1.224  1.00  0.00     0.006 A 
ATOM     12  C   UNL     1       3.083  -0.233   1.262  1.00  0.00     0.000 A 
ATOM     13  C   UNL     1       3.228  -0.184  -1.146  1.00  0.00     0.000 A 
ATOM     14  C   UNL     1       3.836  -0.358   0.096  1.00  0.00     0.000 A 
ENDBRANCH   7   9
TORSDOF 1
