REMARK SMILES CCC(Oc1c(I)cc(I)cc1I)C(=O)O
REMARK SMILES IDX 3 1 2 2 1 3 4 4 5 5 6 6 12 7 8 8 11 9 9 10 7 11 13 12 10 13
REMARK SMILES IDX 14 14 15 15 16 16
REMARK H PARENT 16 17
ROOT
ATOM      1  C   UNL     1      -1.088  -0.438   0.349  1.00  0.00     0.282 C 
ENDROOT
BRANCH   1   2
ATOM      2  C   UNL     1      -1.841   0.831   0.780  1.00  0.00     0.054 C 
ATOM      3  C   UNL     1      -2.819   1.359  -0.265  1.00  0.00     0.008 C 
ENDBRANCH   1   2
BRANCH   1   4
ATOM      4  O   UNL     1      -0.286  -0.183  -0.820  1.00  0.00    -0.477 OA
BRANCH   4   5
ATOM      5  C   UNL     1       1.060  -0.089  -0.556  1.00  0.00     0.147 A 
ATOM      6  C   UNL     1       1.696   1.159  -0.690  1.00  0.00     0.057 A 
ATOM      7  C   UNL     1       1.853  -1.211  -0.251  1.00  0.00     0.057 A 
ATOM      8  C   UNL     1       3.062   1.303  -0.410  1.00  0.00     0.033 A 
ATOM      9  C   UNL     1       3.220  -1.064   0.030  1.00  0.00     0.033 A 
ATOM     10  C   UNL     1       3.812   0.193  -0.035  1.00  0.00     0.015 A 
ATOM     11  I   UNL     1       0.709   2.879  -1.379  1.00  0.00    -0.040 I 
ATOM     12  I   UNL     1       1.147  -3.191  -0.292  1.00  0.00    -0.040 I 
ATOM     13  I   UNL     1       5.837   0.406   0.378  1.00  0.00    -0.044 I 
ENDBRANCH   4   5
ENDBRANCH   1   4
BRANCH   1  14
ATOM     14  C   UNL     1      -2.099  -1.549   0.059  1.00  0.00     0.344 C 
ATOM     15  O   UNL     1      -2.374  -2.049  -1.020  1.00  0.00    -0.248 OA
BRANCH  14  16
ATOM     16  O   UNL     1      -2.724  -1.988   1.176  1.00  0.00    -0.479 OA
ATOM     17  H   UNL     1      -3.321  -2.690   0.842  1.00  0.00     0.296 HD
ENDBRANCH  14  16
ENDBRANCH   1  14
TORSDOF 5
