REMARK SMILES CCC(c1ccccc1)c1c(O)c2ccccc2oc1=O
REMARK SMILES IDX 10 1 11 2 13 3 14 4 15 5 16 6 17 7 18 8 19 9 20 10 21 11
REMARK SMILES IDX 3 12 2 13 1 14 4 15 5 16 9 17 6 18 8 19 7 20 12 21
REMARK H PARENT 12 22
ROOT
ATOM      1  C   UNL     1       0.497   0.565  -0.415  1.00  0.00     0.087 C 
ATOM      2  C   UNL     1       1.142   0.151   0.690  1.00  0.00     0.137 C 
ATOM      3  C   UNL     1       2.516  -0.357   0.632  1.00  0.00     0.060 A 
ATOM      4  C   UNL     1       3.290  -0.674   1.757  1.00  0.00     0.016 A 
ATOM      5  C   UNL     1       4.590  -1.174   1.613  1.00  0.00     0.001 A 
ATOM      6  C   UNL     1       5.138  -1.353   0.344  1.00  0.00     0.004 A 
ATOM      7  C   UNL     1       4.393  -1.017  -0.782  1.00  0.00     0.048 A 
ATOM      8  C   UNL     1       3.100  -0.517  -0.619  1.00  0.00     0.142 A 
ATOM      9  O   UNL     1       2.417  -0.144  -1.786  1.00  0.00    -0.422 OA
ATOM     10  C   UNL     1       1.177   0.478  -1.740  1.00  0.00     0.343 C 
ATOM     11  O   UNL     1       0.670   0.913  -2.769  1.00  0.00    -0.246 OA
ENDROOT
BRANCH   1  12
ATOM     12  C   UNL     1      -0.923   1.131  -0.468  1.00  0.00     0.060 C 
BRANCH  12  13
ATOM     13  C   UNL     1      -1.268   2.122   0.675  1.00  0.00     0.010 C 
ATOM     14  C   UNL     1      -2.533   2.930   0.392  1.00  0.00     0.005 C 
ENDBRANCH  12  13
BRANCH  12  15
ATOM     15  C   UNL     1      -1.945   0.008  -0.645  1.00  0.00    -0.040 A 
ATOM     16  C   UNL     1      -2.419  -0.749   0.438  1.00  0.00     0.004 A 
ATOM     17  C   UNL     1      -2.405  -0.313  -1.933  1.00  0.00     0.004 A 
ATOM     18  C   UNL     1      -3.339  -1.781   0.240  1.00  0.00     0.000 A 
ATOM     19  C   UNL     1      -3.323  -1.345  -2.130  1.00  0.00     0.000 A 
ATOM     20  C   UNL     1      -3.792  -2.078  -1.043  1.00  0.00     0.000 A 
ENDBRANCH  12  15
ENDBRANCH   1  12
BRANCH   2  21
ATOM     21  O   UNL     1       0.521   0.137   1.922  1.00  0.00    -0.507 OA
ATOM     22  H   UNL     1       0.829  -0.646   2.410  1.00  0.00     0.293 HD
ENDBRANCH   2  21
TORSDOF 4
