REMARK SMILES CCOc1ccc(N=C(C)Nc2ccc(OCC)cc2)cc1
REMARK SMILES IDX 11 1 9 2 10 3 8 4 12 6 15 7 14 8 19 9 13 10 20 11 16 12
REMARK SMILES IDX 17 13 18 14 7 15 6 16 21 17 5 18 22 19 4 20 3 21 2 22 1 23
REMARK H PARENT 11 5
ROOT
ATOM      1  N   UNL     1      -1.250   1.697   0.447  1.00  0.00    -0.344 N 
ATOM      2  C   UNL     1       0.092   1.369   0.498  1.00  0.00     0.103 C 
ATOM      3  C   UNL     1       0.983   2.457   1.098  1.00  0.00     0.087 C 
ATOM      4  N   UNL     1       0.591   0.241   0.082  1.00  0.00    -0.236 NA
ATOM      5  H   UNL     1      -1.506   2.609   0.801  1.00  0.00     0.168 HD
ENDROOT
BRANCH   1   6
ATOM      6  C   UNL     1      -2.350   0.964  -0.041  1.00  0.00     0.040 A 
ATOM      7  C   UNL     1      -4.671  -0.385  -0.971  1.00  0.00     0.119 A 
ATOM      8  C   UNL     1      -3.412  -0.975  -1.066  1.00  0.00     0.048 A 
ATOM      9  C   UNL     1      -4.776   0.882  -0.409  1.00  0.00     0.048 A 
ATOM     10  C   UNL     1      -2.267  -0.309  -0.606  1.00  0.00     0.030 A 
ATOM     11  C   UNL     1      -3.628   1.545   0.049  1.00  0.00     0.030 A 
BRANCH   7  12
ATOM     12  O   UNL     1      -5.699  -1.143  -1.456  1.00  0.00    -0.494 OA
BRANCH  12  13
ATOM     13  C   UNL     1      -7.009  -0.583  -1.384  1.00  0.00     0.226 C 
ATOM     14  C   UNL     1      -7.980  -1.589  -1.976  1.00  0.00     0.049 C 
ENDBRANCH  12  13
ENDBRANCH   7  12
ENDBRANCH   1   6
BRANCH   4  15
ATOM     15  C   UNL     1       1.963  -0.017   0.166  1.00  0.00     0.065 A 
ATOM     16  C   UNL     1       2.489  -0.676   1.278  1.00  0.00     0.032 A 
ATOM     17  C   UNL     1       2.813   0.322  -0.886  1.00  0.00     0.032 A 
ATOM     18  C   UNL     1       3.857  -0.961   1.360  1.00  0.00     0.048 A 
ATOM     19  C   UNL     1       4.179   0.041  -0.807  1.00  0.00     0.048 A 
ATOM     20  C   UNL     1       4.709  -0.599   0.317  1.00  0.00     0.119 A 
BRANCH  20  21
ATOM     21  O   UNL     1       6.059  -0.813   0.268  1.00  0.00    -0.494 OA
BRANCH  21  22
ATOM     22  C   UNL     1       6.647  -1.498   1.372  1.00  0.00     0.226 C 
ATOM     23  C   UNL     1       8.134  -1.639   1.096  1.00  0.00     0.049 C 
ENDBRANCH  21  22
ENDBRANCH  20  21
ENDBRANCH   4  15
TORSDOF 6
