REMARK SMILES O=C(O)CCCc1ccccc1
REMARK SMILES IDX 4 1 2 2 1 3 3 4 5 6 6 7 7 8 8 9 12 10 9 11 11 12 10 13
REMARK H PARENT 3 5
ROOT
ATOM      1  C   UNL     1      -2.582  -0.653  -0.913  1.00  0.00     0.123 C 
ENDROOT
BRANCH   1   2
ATOM      2  C   UNL     1      -3.419  -0.069   0.194  1.00  0.00     0.303 C 
ATOM      3  O   UNL     1      -3.084   0.147   1.345  1.00  0.00    -0.252 OA
BRANCH   2   4
ATOM      4  O   UNL     1      -4.673   0.203  -0.217  1.00  0.00    -0.481 OA
ATOM      5  H   UNL     1      -5.114   0.559   0.583  1.00  0.00     0.296 HD
ENDBRANCH   2   4
ENDBRANCH   1   2
BRANCH   1   6
ATOM      6  C   UNL     1      -1.109  -0.793  -0.532  1.00  0.00     0.016 C 
BRANCH   6   7
ATOM      7  C   UNL     1      -0.392   0.560  -0.470  1.00  0.00     0.036 C 
BRANCH   7   8
ATOM      8  C   UNL     1       1.064   0.398  -0.112  1.00  0.00    -0.048 A 
ATOM      9  C   UNL     1       2.038   0.289  -1.113  1.00  0.00     0.004 A 
ATOM     10  C   UNL     1       1.457   0.326   1.232  1.00  0.00     0.004 A 
ATOM     11  C   UNL     1       3.382   0.122  -0.775  1.00  0.00     0.000 A 
ATOM     12  C   UNL     1       2.801   0.159   1.567  1.00  0.00     0.000 A 
ATOM     13  C   UNL     1       3.764   0.058   0.564  1.00  0.00     0.000 A 
ENDBRANCH   7   8
ENDBRANCH   6   7
ENDBRANCH   1   6
TORSDOF 5
