REMARK SMILES O=S1(=O)OC(c2ccc(O)cc2)(c2ccc(O)cc2)c2ccccc21
REMARK SMILES IDX 5 1 4 2 2 3 1 4 3 5 25 6 20 7 21 8 22 9 23 10 24 11 6 12
REMARK SMILES IDX 9 13 8 14 11 15 7 16 12 17 10 18 13 20 14 21 19 22 15 23
REMARK SMILES IDX 18 24 16 25 17 26
REMARK H PARENT 10 19 17 27
ROOT
ATOM      1  C   UNL     1      -0.175   0.236  -0.440  1.00  0.00     0.164 C 
ATOM      2  O   UNL     1      -0.641   0.739  -1.716  1.00  0.00    -0.245 OA
ATOM      3  S   UNL     1      -0.711   2.363  -1.788  1.00  0.00     0.298 S 
ATOM      4  O   UNL     1      -2.085   2.755  -2.014  1.00  0.00    -0.194 OA
ATOM      5  O   UNL     1       0.395   2.852  -2.580  1.00  0.00    -0.194 OA
ATOM      6  C   UNL     1      -0.342   2.656  -0.119  1.00  0.00     0.101 A 
ATOM      7  C   UNL     1      -0.094   1.439   0.507  1.00  0.00     0.015 A 
ATOM      8  C   UNL     1       0.183   1.445   1.872  1.00  0.00     0.009 A 
ATOM      9  C   UNL     1       0.208   2.667   2.557  1.00  0.00     0.001 A 
ATOM     10  C   UNL     1      -0.045   3.876   1.888  1.00  0.00     0.001 A 
ATOM     11  C   UNL     1      -0.331   3.879   0.525  1.00  0.00     0.023 A 
ENDROOT
BRANCH   1  12
ATOM     12  C   UNL     1      -1.223  -0.768   0.091  1.00  0.00    -0.005 A 
ATOM     13  C   UNL     1      -3.144  -2.545   1.119  1.00  0.00     0.115 A 
ATOM     14  C   UNL     1      -1.814  -2.680   1.491  1.00  0.00     0.046 A 
ATOM     15  C   UNL     1      -3.539  -1.536   0.250  1.00  0.00     0.046 A 
ATOM     16  C   UNL     1      -0.860  -1.795   0.985  1.00  0.00     0.011 A 
ATOM     17  C   UNL     1      -2.584  -0.650  -0.257  1.00  0.00     0.011 A 
BRANCH  13  18
ATOM     18  O   UNL     1      -4.042  -3.430   1.638  1.00  0.00    -0.508 OA
ATOM     19  H   UNL     1      -4.921  -3.226   1.278  1.00  0.00     0.293 HD
ENDBRANCH  13  18
ENDBRANCH   1  12
BRANCH   1  20
ATOM     20  C   UNL     1       1.178  -0.415  -0.791  1.00  0.00    -0.005 A 
ATOM     21  C   UNL     1       2.415   0.073  -0.327  1.00  0.00     0.011 A 
ATOM     22  C   UNL     1       1.202  -1.530  -1.659  1.00  0.00     0.011 A 
ATOM     23  C   UNL     1       3.619  -0.544  -0.689  1.00  0.00     0.046 A 
ATOM     24  C   UNL     1       2.402  -2.147  -2.017  1.00  0.00     0.046 A 
ATOM     25  C   UNL     1       3.601  -1.651  -1.528  1.00  0.00     0.115 A 
BRANCH  25  26
ATOM     26  O   UNL     1       4.750  -2.279  -1.904  1.00  0.00    -0.508 OA
ATOM     27  H   UNL     1       5.505  -1.796  -1.530  1.00  0.00     0.293 HD
ENDBRANCH  25  26
ENDBRANCH   1  20
TORSDOF 4
