REMARK SMILES CNC(=O)Oc1ccc2c(c1)[C@]1(C)CCN(C)[C@@H]1N2C
REMARK SMILES IDX 5 1 3 2 2 3 4 4 1 5 6 7 7 8 11 9 8 10 10 11 9 12 12 13 19 14
REMARK SMILES IDX 14 15 18 16 15 17 16 18 13 19 20 20 17 21
REMARK H PARENT 2 6
ROOT
ATOM      1  O   UNL     1       3.500  -0.004   0.917  1.00  0.00    -0.410 OA
ENDROOT
BRANCH   1   2
ATOM      2  C   UNL     1       4.172   0.064  -0.291  1.00  0.00     0.412 C 
ATOM      3  N   UNL     1       5.481  -0.283  -0.093  1.00  0.00    -0.324 N 
ATOM      4  O   UNL     1       3.698   0.391  -1.371  1.00  0.00    -0.224 OA
ATOM      5  C   UNL     1       6.461  -0.172  -1.137  1.00  0.00     0.146 C 
ATOM      6  H   UNL     1       5.770  -0.400   0.869  1.00  0.00     0.166 HD
ENDBRANCH   1   2
BRANCH   1   7
ATOM      7  C   UNL     1       2.147   0.330   0.822  1.00  0.00     0.133 A 
ATOM      8  C   UNL     1       1.754   1.643   1.097  1.00  0.00     0.049 A 
ATOM      9  C   UNL     1       1.218  -0.665   0.532  1.00  0.00     0.053 A 
ATOM     10  C   UNL     1       0.398   1.982   1.055  1.00  0.00     0.030 A 
ATOM     11  C   UNL     1      -0.124  -0.306   0.500  1.00  0.00    -0.011 A 
ATOM     12  C   UNL     1      -0.542   1.001   0.760  1.00  0.00     0.042 A 
ATOM     13  C   UNL     1      -1.313  -1.174   0.220  1.00  0.00     0.030 C 
ATOM     14  N   UNL     1      -1.932   1.171   0.645  1.00  0.00    -0.358 N 
ATOM     15  C   UNL     1      -1.430  -1.566  -1.262  1.00  0.00     0.031 C 
ATOM     16  C   UNL     1      -2.509  -0.183   0.466  1.00  0.00     0.163 C 
ATOM     17  C   UNL     1      -2.507  -0.645  -1.815  1.00  0.00     0.087 C 
ATOM     18  N   UNL     1      -3.401  -0.484  -0.668  1.00  0.00    -0.286 NA
ATOM     19  C   UNL     1      -1.373  -2.399   1.136  1.00  0.00     0.020 C 
ATOM     20  C   UNL     1      -2.553   2.042   1.632  1.00  0.00     0.145 C 
ATOM     21  C   UNL     1      -4.397   0.547  -0.900  1.00  0.00     0.107 C 
ENDBRANCH   1   7
TORSDOF 2
