REMARK SMILES CC1NC(C2CC2)CC1c1ccc(Cl)cc1
REMARK SMILES IDX 10 1 11 2 12 3 13 4 14 5 15 6 16 7 9 8 2 9 3 10 4 11 8 12
REMARK SMILES IDX 1 13 5 15 6 16 7 17
REMARK H PARENT 3 14
ROOT
ATOM      1  C   UNL     1       1.901  -0.074  -0.232  1.00  0.00    -0.043 A 
ATOM      2  C   UNL     1       2.126   0.942  -1.174  1.00  0.00     0.005 A 
ATOM      3  C   UNL     1       3.426   1.313  -1.530  1.00  0.00     0.021 A 
ATOM      4  C   UNL     1       4.513   0.669  -0.945  1.00  0.00     0.041 A 
ATOM      5  Cl  UNL     1       6.113   1.123  -1.382  1.00  0.00    -0.084 Cl
ATOM      6  C   UNL     1       4.311  -0.342  -0.009  1.00  0.00     0.021 A 
ATOM      7  C   UNL     1       3.010  -0.711   0.345  1.00  0.00     0.005 A 
ENDROOT
BRANCH   1   8
ATOM      8  C   UNL     1       0.503  -0.494   0.166  1.00  0.00     0.037 C 
ATOM      9  C   UNL     1      -0.379  -1.014  -0.989  1.00  0.00     0.058 C 
ATOM     10  N   UNL     1      -1.748  -0.546  -0.709  1.00  0.00    -0.311 NA
ATOM     11  C   UNL     1      -1.747   0.066   0.621  1.00  0.00     0.057 C 
ATOM     12  C   UNL     1      -0.342   0.627   0.767  1.00  0.00     0.029 C 
ATOM     13  C   UNL     1      -0.317  -2.533  -1.128  1.00  0.00     0.025 C 
ATOM     14  H   UNL     1      -2.433  -1.298  -0.752  1.00  0.00     0.123 HD
BRANCH  11  15
ATOM     15  C   UNL     1      -2.807   1.117   0.669  1.00  0.00     0.006 C 
ATOM     16  C   UNL     1      -4.224   0.758   1.042  1.00  0.00     0.005 C 
ATOM     17  C   UNL     1      -3.380   1.563   1.991  1.00  0.00     0.005 C 
ENDBRANCH  11  15
ENDBRANCH   1   8
TORSDOF 2
