REMARK SMILES CC(C)COc1ccc(CNC(=O)N(Cc2ccc(F)cc2)C2CCN(C)CC2)cc1
REMARK SMILES IDX 10 1 9 2 6 3 7 4 31 5 8 6 30 7 5 8 4 9 2 10 1 11 3 12 11 13
REMARK SMILES IDX 12 14 13 15 14 17 15 18 16 19 17 20 22 21 18 22 21 23 19 24
REMARK SMILES IDX 20 25 23 26 24 27 29 28 25 29 28 30 26 31 27 32
REMARK H PARENT 11 16
ROOT
ATOM      1  C   UNL     1       0.672  -1.319  -2.000  1.00  0.00     0.153 C 
ENDROOT
BRANCH   1   2
ATOM      2  C   UNL     1       2.056  -1.016  -1.484  1.00  0.00    -0.028 A 
ATOM      3  C   UNL     1       4.613  -0.405  -0.470  1.00  0.00     0.119 A 
ATOM      4  C   UNL     1       4.119   0.273  -1.584  1.00  0.00     0.047 A 
ATOM      5  C   UNL     1       3.825  -1.386   0.135  1.00  0.00     0.047 A 
ATOM      6  C   UNL     1       2.847  -0.028  -2.086  1.00  0.00     0.009 A 
ATOM      7  C   UNL     1       2.557  -1.690  -0.364  1.00  0.00     0.009 A 
BRANCH   3   8
ATOM      8  O   UNL     1       5.828  -0.203   0.124  1.00  0.00    -0.493 OA
BRANCH   8   9
ATOM      9  C   UNL     1       6.681   0.786  -0.450  1.00  0.00     0.232 C 
BRANCH   9  10
ATOM     10  C   UNL     1       7.985   0.882   0.358  1.00  0.00     0.020 C 
ATOM     11  C   UNL     1       7.714   1.313   1.801  1.00  0.00     0.011 C 
ATOM     12  C   UNL     1       8.751  -0.441   0.341  1.00  0.00     0.011 C 
ENDBRANCH   9  10
ENDBRANCH   8   9
ENDBRANCH   3   8
ENDBRANCH   1   2
BRANCH   1  13
ATOM     13  N   UNL     1      -0.332  -0.629  -1.215  1.00  0.00    -0.334 N 
ATOM     14  C   UNL     1      -1.018  -1.279  -0.222  1.00  0.00     0.318 C 
ATOM     15  O   UNL     1      -0.847  -2.480  -0.016  1.00  0.00    -0.249 OA
ATOM     16  H   UNL     1      -0.131   0.343  -1.072  1.00  0.00     0.165 HD
BRANCH  14  17
ATOM     17  N   UNL     1      -1.948  -0.517   0.490  1.00  0.00    -0.317 N 
BRANCH  17  18
ATOM     18  C   UNL     1      -2.766  -1.269   1.456  1.00  0.00     0.157 C 
BRANCH  18  19
ATOM     19  C   UNL     1      -4.078  -1.811   0.924  1.00  0.00    -0.028 A 
ATOM     20  C   UNL     1      -4.168  -2.460  -0.318  1.00  0.00     0.008 A 
ATOM     21  C   UNL     1      -5.233  -1.737   1.725  1.00  0.00     0.008 A 
ATOM     22  C   UNL     1      -5.385  -2.978  -0.768  1.00  0.00     0.039 A 
ATOM     23  C   UNL     1      -6.450  -2.253   1.274  1.00  0.00     0.039 A 
ATOM     24  C   UNL     1      -6.515  -2.865   0.030  1.00  0.00     0.123 A 
ATOM     25  F   UNL     1      -7.682  -3.359  -0.402  1.00  0.00    -0.207 F 
ENDBRANCH  18  19
ENDBRANCH  17  18
BRANCH  17  26
ATOM     26  C   UNL     1      -2.245   0.919   0.216  1.00  0.00     0.089 C 
ATOM     27  C   UNL     1      -3.154   1.131  -1.006  1.00  0.00     0.041 C 
ATOM     28  C   UNL     1      -2.638   1.787   1.425  1.00  0.00     0.041 C 
ATOM     29  C   UNL     1      -4.627   1.351  -0.664  1.00  0.00     0.086 C 
ATOM     30  C   UNL     1      -4.141   1.962   1.617  1.00  0.00     0.086 C 
ATOM     31  N   UNL     1      -4.862   2.330   0.400  1.00  0.00    -0.306 NA
ATOM     32  C   UNL     1      -4.605   3.702  -0.027  1.00  0.00     0.105 C 
ENDBRANCH  17  26
ENDBRANCH  14  17
ENDBRANCH   1  13
TORSDOF 9
