REMARK SMILES NC(=O)C1(N2CCCCC2)CCN(CCCC(=O)c2ccc(F)cc2)CC1
REMARK SMILES IDX 15 1 14 2 13 3 4 4 11 5 27 6 12 7 26 8 2 9 1 10 3 11 5 14
REMARK SMILES IDX 6 15 10 16 7 17 9 18 8 19 16 20 17 21 18 22 19 23 20 24
REMARK SMILES IDX 25 25 21 26 24 27 22 28 23 29
REMARK H PARENT 1 12 1 13
ROOT
ATOM      1  C   UNL     1       2.160  -1.090  -0.599  1.00  0.00     0.024 C 
ENDROOT
BRANCH   1   2
ATOM      2  C   UNL     1       1.406   0.148  -1.113  1.00  0.00     0.085 C 
BRANCH   2   3
ATOM      3  N   UNL     1      -0.045   0.121  -0.917  1.00  0.00    -0.303 NA
ATOM      4  C   UNL     1      -2.705  -0.882   0.043  1.00  0.00     0.103 C 
ATOM      5  C   UNL     1      -2.255  -0.788  -1.440  1.00  0.00     0.048 C 
ATOM      6  C   UNL     1      -1.499  -0.640   0.994  1.00  0.00     0.048 C 
ATOM      7  C   UNL     1      -0.742  -0.954  -1.607  1.00  0.00     0.087 C 
ATOM      8  C   UNL     1      -0.458   0.349   0.469  1.00  0.00     0.087 C 
BRANCH   4   9
ATOM      9  C   UNL     1      -3.186  -2.349   0.406  1.00  0.00     0.238 C 
ATOM     10  N   UNL     1      -2.501  -3.407  -0.125  1.00  0.00    -0.368 N 
ATOM     11  O   UNL     1      -4.092  -2.611   1.198  1.00  0.00    -0.273 OA
ATOM     12  H   UNL     1      -2.897  -4.312   0.100  1.00  0.00     0.159 HD
ATOM     13  H   UNL     1      -1.997  -3.343  -0.995  1.00  0.00     0.159 HD
ENDBRANCH   4   9
BRANCH   4  14
ATOM     14  N   UNL     1      -3.866   0.030   0.294  1.00  0.00    -0.289 NA
ATOM     15  C   UNL     1      -5.079  -0.261  -0.485  1.00  0.00     0.085 C 
ATOM     16  C   UNL     1      -3.576   1.453   0.462  1.00  0.00     0.085 C 
ATOM     17  C   UNL     1      -5.540   0.897  -1.370  1.00  0.00     0.016 C 
ATOM     18  C   UNL     1      -4.854   2.273   0.643  1.00  0.00     0.016 C 
ATOM     19  C   UNL     1      -5.778   2.170  -0.566  1.00  0.00     0.003 C 
ENDBRANCH   4  14
ENDBRANCH   2   3
ENDBRANCH   1   2
BRANCH   1  20
ATOM     20  C   UNL     1       3.679  -0.936  -0.738  1.00  0.00     0.082 C 
BRANCH  20  21
ATOM     21  C   UNL     1       4.279   0.014   0.286  1.00  0.00     0.162 C 
ATOM     22  O   UNL     1       3.614   0.505   1.195  1.00  0.00    -0.294 OA
BRANCH  21  23
ATOM     23  C   UNL     1       5.733   0.353   0.186  1.00  0.00     0.018 A 
ATOM     24  C   UNL     1       6.583  -0.255  -0.749  1.00  0.00     0.015 A 
ATOM     25  C   UNL     1       6.255   1.314   1.067  1.00  0.00     0.015 A 
ATOM     26  C   UNL     1       7.935   0.099  -0.800  1.00  0.00     0.040 A 
ATOM     27  C   UNL     1       7.606   1.665   1.012  1.00  0.00     0.040 A 
ATOM     28  C   UNL     1       8.433   1.054   0.079  1.00  0.00     0.123 A 
ATOM     29  F   UNL     1       9.728   1.389   0.024  1.00  0.00    -0.207 F 
ENDBRANCH  21  23
ENDBRANCH  20  21
ENDBRANCH   1  20
TORSDOF 7
