REMARK SMILES O=C(OCCN1CCCCC1)C(O)(c1ccccc1)c1ccccc1
REMARK SMILES IDX 2 1 1 2 12 3 13 4 14 6 15 7 19 8 16 9 18 10 17 11 20 12
REMARK SMILES IDX 21 13 25 14 22 15 24 16 23 17 3 18 4 19 5 20 6 21 7 22 11 23
REMARK SMILES IDX 8 24 10 25 9 26
REMARK H PARENT 13 5
ROOT
ATOM      1  C   UNL     1      -0.935   0.621   1.368  1.00  0.00     0.347 C 
ATOM      2  O   UNL     1      -0.446   1.370   2.213  1.00  0.00    -0.248 OA
ENDROOT
BRANCH   1   3
ATOM      3  C   UNL     1      -2.447   0.253   1.333  1.00  0.00     0.213 C 
BRANCH   3   4
ATOM      4  O   UNL     1      -2.965   0.580   2.647  1.00  0.00    -0.370 OA
ATOM      5  H   UNL     1      -2.503   1.398   2.912  1.00  0.00     0.213 HD
ENDBRANCH   3   4
BRANCH   3   6
ATOM      6  C   UNL     1      -3.272   1.122   0.369  1.00  0.00    -0.001 A 
ATOM      7  C   UNL     1      -2.693   1.959  -0.601  1.00  0.00     0.008 A 
ATOM      8  C   UNL     1      -4.681   1.077   0.438  1.00  0.00     0.008 A 
ATOM      9  C   UNL     1      -3.490   2.720  -1.462  1.00  0.00     0.000 A 
ATOM     10  C   UNL     1      -5.475   1.837  -0.422  1.00  0.00     0.000 A 
ATOM     11  C   UNL     1      -4.878   2.659  -1.372  1.00  0.00     0.000 A 
ENDBRANCH   3   6
BRANCH   3  12
ATOM     12  C   UNL     1      -2.631  -1.258   1.111  1.00  0.00    -0.001 A 
ATOM     13  C   UNL     1      -2.699  -1.805  -0.185  1.00  0.00     0.008 A 
ATOM     14  C   UNL     1      -2.680  -2.147   2.202  1.00  0.00     0.008 A 
ATOM     15  C   UNL     1      -2.829  -3.182  -0.380  1.00  0.00     0.000 A 
ATOM     16  C   UNL     1      -2.810  -3.523   2.005  1.00  0.00     0.000 A 
ATOM     17  C   UNL     1      -2.886  -4.040   0.714  1.00  0.00     0.000 A 
ENDBRANCH   3  12
ENDBRANCH   1   3
BRANCH   1  18
ATOM     18  O   UNL     1      -0.230   0.066   0.341  1.00  0.00    -0.462 OA
BRANCH  18  19
ATOM     19  C   UNL     1       1.177   0.361   0.351  1.00  0.00     0.248 C 
BRANCH  19  20
ATOM     20  C   UNL     1       1.827  -0.366  -0.836  1.00  0.00     0.126 C 
BRANCH  20  21
ATOM     21  N   UNL     1       3.275  -0.202  -1.030  1.00  0.00    -0.300 NA
ATOM     22  C   UNL     1       3.659   1.184  -1.317  1.00  0.00     0.084 C 
ATOM     23  C   UNL     1       4.062  -0.764   0.074  1.00  0.00     0.084 C 
ATOM     24  C   UNL     1       5.139   1.270  -1.694  1.00  0.00     0.016 C 
ATOM     25  C   UNL     1       5.555  -0.740  -0.257  1.00  0.00     0.016 C 
ATOM     26  C   UNL     1       6.024   0.667  -0.609  1.00  0.00     0.003 C 
ENDBRANCH  20  21
ENDBRANCH  19  20
ENDBRANCH  18  19
ENDBRANCH   1  18
TORSDOF 8
