REMARK SMILES CCCCCCCCCCCCCCCC(=O)OCCC1CCN(CCCN2c3ccccc3Sc3ccc(S(=O)(=O)N(C)C)cc32)CC1
REMARK SMILES IDX 14 1 13 2 12 3 11 4 10 5 9 6 8 7 7 8 6 9 5 10 4 11 3 12 2 13
REMARK SMILES IDX 1 14 15 15 16 16 17 17 18 18 19 19 20 20 21 21 22 22 49 23
REMARK SMILES IDX 23 24 48 25 24 26 25 27 26 28 27 29 28 30 29 31 47 32 30 33
REMARK SMILES IDX 34 34 46 35 36 36 31 37 33 38 35 39 39 40 37 41 32 42 38 43
REMARK SMILES IDX 40 44 41 45 42 46 43 47 44 48 45 49
REMARK H PARENT
ROOT
ATOM      1  C   UNL     1       2.024  -1.869  -1.514  1.00  0.00     0.012 C 
ENDROOT
BRANCH   1   2
ATOM      2  C   UNL     1       3.399  -2.067  -0.862  1.00  0.00     0.001 C 
BRANCH   2   3
ATOM      3  C   UNL     1       4.284  -0.818  -0.902  1.00  0.00     0.000 C 
BRANCH   3   4
ATOM      4  C   UNL     1       5.659  -1.053  -0.275  1.00  0.00     0.000 C 
BRANCH   4   5
ATOM      5  C   UNL     1       6.610  -1.842  -1.178  1.00  0.00     0.000 C 
BRANCH   5   6
ATOM      6  C   UNL     1       7.939  -2.089  -0.465  1.00  0.00     0.000 C 
BRANCH   6   7
ATOM      7  C   UNL     1       8.987  -2.762  -1.359  1.00  0.00     0.000 C 
BRANCH   7   8
ATOM      8  C   UNL     1       9.498  -1.914  -2.532  1.00  0.00    -0.000 C 
BRANCH   8   9
ATOM      9  C   UNL     1      10.076  -0.540  -2.163  1.00  0.00    -0.000 C 
BRANCH   9  10
ATOM     10  C   UNL     1      11.245  -0.621  -1.174  1.00  0.00    -0.000 C 
BRANCH  10  11
ATOM     11  C   UNL     1      11.951   0.722  -0.951  1.00  0.00    -0.000 C 
BRANCH  11  12
ATOM     12  C   UNL     1      11.067   1.747  -0.235  1.00  0.00    -0.000 C 
BRANCH  12  13
ATOM     13  C   UNL     1      11.770   3.084   0.015  1.00  0.00    -0.003 C 
ATOM     14  C   UNL     1      12.949   2.980   0.967  1.00  0.00     0.004 C 
ENDBRANCH  12  13
ENDBRANCH  11  12
ENDBRANCH  10  11
ENDBRANCH   9  10
ENDBRANCH   8   9
ENDBRANCH   7   8
ENDBRANCH   6   7
ENDBRANCH   5   6
ENDBRANCH   4   5
ENDBRANCH   3   4
ENDBRANCH   2   3
ENDBRANCH   1   2
BRANCH   1  15
ATOM     15  C   UNL     1       1.137  -0.811  -0.855  1.00  0.00     0.123 C 
BRANCH  15  16
ATOM     16  C   UNL     1       0.780  -1.143   0.575  1.00  0.00     0.305 C 
ATOM     17  O   UNL     1       0.693  -2.274   1.030  1.00  0.00    -0.252 OA
BRANCH  16  18
ATOM     18  O   UNL     1       0.542   0.003   1.270  1.00  0.00    -0.466 OA
BRANCH  18  19
ATOM     19  C   UNL     1       0.235  -0.172   2.660  1.00  0.00     0.233 C 
BRANCH  19  20
ATOM     20  C   UNL     1      -0.319   1.140   3.214  1.00  0.00     0.045 C 
BRANCH  20  21
ATOM     21  C   UNL     1      -1.842   1.328   3.046  1.00  0.00    -0.005 C 
ATOM     22  C   UNL     1      -2.337   1.215   1.596  1.00  0.00     0.019 C 
ATOM     23  C   UNL     1      -2.642   0.403   3.984  1.00  0.00     0.019 C 
ATOM     24  C   UNL     1      -3.863   1.357   1.548  1.00  0.00     0.085 C 
ATOM     25  C   UNL     1      -3.700  -0.416   3.246  1.00  0.00     0.085 C 
ATOM     26  N   UNL     1      -4.578   0.393   2.401  1.00  0.00    -0.303 NA
BRANCH  26  27
ATOM     27  C   UNL     1      -5.683   1.006   3.141  1.00  0.00     0.086 C 
BRANCH  27  28
ATOM     28  C   UNL     1      -6.870   1.409   2.250  1.00  0.00     0.037 C 
BRANCH  28  29
ATOM     29  C   UNL     1      -7.773   0.227   1.851  1.00  0.00     0.124 C 
BRANCH  29  30
ATOM     30  N   UNL     1      -7.289  -0.559   0.687  1.00  0.00    -0.340 N 
ATOM     31  C   UNL     1      -6.677  -1.814   0.966  1.00  0.00     0.055 A 
ATOM     32  C   UNL     1      -7.216   0.120  -0.563  1.00  0.00     0.057 A 
ATOM     33  C   UNL     1      -7.085  -2.614   2.056  1.00  0.00     0.027 A 
ATOM     34  C   UNL     1      -5.663  -2.345   0.138  1.00  0.00     0.036 A 
ATOM     35  C   UNL     1      -8.088   1.189  -0.873  1.00  0.00     0.049 A 
ATOM     36  C   UNL     1      -6.294  -0.260  -1.562  1.00  0.00     0.036 A 
ATOM     37  C   UNL     1      -6.477  -3.837   2.348  1.00  0.00     0.002 A 
ATOM     38  C   UNL     1      -5.054  -3.576   0.443  1.00  0.00     0.017 A 
ATOM     39  S   UNL     1      -5.064  -1.524  -1.324  1.00  0.00    -0.086 SA
ATOM     40  C   UNL     1      -8.034   1.850  -2.109  1.00  0.00     0.084 A 
ATOM     41  C   UNL     1      -6.252   0.407  -2.802  1.00  0.00     0.019 A 
ATOM     42  C   UNL     1      -5.454  -4.319   1.549  1.00  0.00     0.001 A 
ATOM     43  C   UNL     1      -7.112   1.466  -3.073  1.00  0.00     0.023 A 
BRANCH  40  44
ATOM     44  S   UNL     1      -9.066   3.276  -2.395  1.00  0.00     0.242 S 
ATOM     45  O   UNL     1      -9.279   3.918  -1.117  1.00  0.00    -0.207 OA
ATOM     46  O   UNL     1      -8.497   4.001  -3.514  1.00  0.00    -0.207 OA
BRANCH  44  47
ATOM     47  N   UNL     1     -10.523   2.604  -2.911  1.00  0.00    -0.204 NA
ATOM     48  C   UNL     1     -10.581   1.945  -4.222  1.00  0.00     0.124 C 
ATOM     49  C   UNL     1     -11.466   2.100  -1.903  1.00  0.00     0.124 C 
ENDBRANCH  44  47
ENDBRANCH  40  44
ENDBRANCH  29  30
ENDBRANCH  28  29
ENDBRANCH  27  28
ENDBRANCH  26  27
ENDBRANCH  20  21
ENDBRANCH  19  20
ENDBRANCH  18  19
ENDBRANCH  16  18
ENDBRANCH  15  16
ENDBRANCH   1  15
TORSDOF 24
