REMARK SMILES O=C1OC(CCN2CCCCC2)OC1(c1ccccc1)c1ccccc1
REMARK SMILES IDX 5 1 4 2 1 3 2 4 3 5 14 6 13 7 15 8 16 9 20 10 17 11 19 12
REMARK SMILES IDX 18 13 21 14 22 15 26 16 23 17 25 18 24 19 6 20 7 21 8 22
REMARK SMILES IDX 12 23 9 24 11 25 10 26
REMARK H PARENT
ROOT
ATOM      1  C   UNL     1      -1.454  -0.852   0.513  1.00  0.00     0.092 C 
ENDROOT
BRANCH   1   2
ATOM      2  C   UNL     1      -0.047  -0.887   1.105  1.00  0.00     0.313 C 
ATOM      3  O   UNL     1       2.409  -3.198   0.749  1.00  0.00    -0.248 OA
ATOM      4  C   UNL     1       1.710  -2.193   0.752  1.00  0.00     0.350 C 
ATOM      5  O   UNL     1       0.408  -2.220   1.151  1.00  0.00    -0.433 OA
ATOM      6  C   UNL     1       2.122  -0.763   0.374  1.00  0.00     0.219 C 
ATOM      7  O   UNL     1       0.831  -0.115   0.306  1.00  0.00    -0.314 OA
BRANCH   6   8
ATOM      8  C   UNL     1       2.793  -0.698  -1.004  1.00  0.00    -0.000 A 
ATOM      9  C   UNL     1       2.260   0.081  -2.048  1.00  0.00     0.008 A 
ATOM     10  C   UNL     1       3.986  -1.401  -1.253  1.00  0.00     0.008 A 
ATOM     11  C   UNL     1       2.888   0.142  -3.295  1.00  0.00     0.000 A 
ATOM     12  C   UNL     1       4.613  -1.340  -2.500  1.00  0.00     0.000 A 
ATOM     13  C   UNL     1       4.063  -0.570  -3.521  1.00  0.00     0.000 A 
ENDBRANCH   6   8
BRANCH   6  14
ATOM     14  C   UNL     1       2.946  -0.044   1.451  1.00  0.00    -0.000 A 
ATOM     15  C   UNL     1       3.782  -0.736   2.344  1.00  0.00     0.008 A 
ATOM     16  C   UNL     1       2.906   1.362   1.539  1.00  0.00     0.008 A 
ATOM     17  C   UNL     1       4.528  -0.048   3.306  1.00  0.00     0.000 A 
ATOM     18  C   UNL     1       3.652   2.046   2.501  1.00  0.00     0.000 A 
ATOM     19  C   UNL     1       4.460   1.340   3.387  1.00  0.00     0.000 A 
ENDBRANCH   6  14
ENDBRANCH   1   2
BRANCH   1  20
ATOM     20  C   UNL     1      -2.026   0.570   0.507  1.00  0.00     0.091 C 
BRANCH  20  21
ATOM     21  N   UNL     1      -3.392   0.730  -0.010  1.00  0.00    -0.303 NA
ATOM     22  C   UNL     1      -4.403   0.042   0.800  1.00  0.00     0.084 C 
ATOM     23  C   UNL     1      -3.512   0.388  -1.432  1.00  0.00     0.084 C 
ATOM     24  C   UNL     1      -5.813   0.415   0.338  1.00  0.00     0.016 C 
ATOM     25  C   UNL     1      -4.894   0.772  -1.966  1.00  0.00     0.016 C 
ATOM     26  C   UNL     1      -6.005   0.125  -1.147  1.00  0.00     0.003 C 
ENDBRANCH  20  21
ENDBRANCH   1  20
TORSDOF 5
