REMARK SMILES COc1cccc2c1C(=O)c1c(O)c3c(c(O)c1C2=O)C[C@@](O)(C(=O)CO)C[C@@H]3O[C@H]1C[C@H](N)[C@H](O[C@@H]2CCCCO2)[C@H](C)O1
REMARK SMILES IDX 3 1 8 2 9 3 10 4 11 5 12 6 14 7 15 8 21 9 22 10 28 11 29 12
REMARK SMILES IDX 16 13 18 14 19 15 20 16 7 17 6 18 5 19 4 20 2 21 1 22 13 23
REMARK SMILES IDX 17 25 30 27 31 28 32 29 45 30 33 31 43 32 35 33 44 34 34 35
REMARK SMILES IDX 36 38 37 39 38 40 42 41 39 42 41 43 40 44 23 45 24 47 25 48
REMARK SMILES IDX 26 49 27 50
REMARK H PARENT 13 24 17 26 34 36 34 37 23 46 27 51
ROOT
ATOM      1  C   UNL     1       6.935   1.243   2.458  1.00  0.00     0.130 A 
ATOM      2  C   UNL     1       6.282   0.609   1.384  1.00  0.00     0.076 A 
ATOM      3  C   UNL     1       4.804   0.471   1.322  1.00  0.00     0.202 C 
ATOM      4  O   UNL     1       4.076   0.820   2.248  1.00  0.00    -0.288 OA
ATOM      5  C   UNL     1       4.156  -0.081   0.105  1.00  0.00     0.080 A 
ATOM      6  C   UNL     1       2.747  -0.140   0.001  1.00  0.00     0.133 A 
ATOM      7  C   UNL     1       2.115  -0.571  -1.184  1.00  0.00     0.031 A 
ATOM      8  C   UNL     1       2.924  -1.036  -2.247  1.00  0.00     0.008 A 
ATOM      9  C   UNL     1       2.284  -1.628  -3.490  1.00  0.00     0.083 C 
ATOM     10  C   UNL     1       0.920  -1.032  -3.880  1.00  0.00     0.132 C 
ATOM     11  C   UNL     1       0.259  -0.182  -2.800  1.00  0.00     0.081 C 
ATOM     12  C   UNL     1       0.603  -0.627  -1.377  1.00  0.00     0.159 C 
ATOM     13  C   UNL     1       4.322  -1.047  -2.104  1.00  0.00     0.131 A 
ATOM     14  C   UNL     1       4.939  -0.550  -0.945  1.00  0.00     0.080 A 
ATOM     15  C   UNL     1       6.409  -0.540  -0.826  1.00  0.00     0.198 C 
ATOM     16  O   UNL     1       7.091  -1.066  -1.700  1.00  0.00    -0.288 OA
ATOM     17  C   UNL     1       7.050   0.106   0.332  1.00  0.00     0.038 A 
ATOM     18  C   UNL     1       8.449   0.207   0.354  1.00  0.00     0.013 A 
ATOM     19  C   UNL     1       9.089   0.805   1.435  1.00  0.00     0.005 A 
ATOM     20  C   UNL     1       8.334   1.318   2.487  1.00  0.00     0.047 A 
ENDROOT
BRANCH   1  21
ATOM     21  O   UNL     1       6.205   1.722   3.511  1.00  0.00    -0.496 OA
ATOM     22  C   UNL     1       6.515   3.066   3.867  1.00  0.00     0.278 C 
ENDBRANCH   1  21
BRANCH   6  23
ATOM     23  O   UNL     1       1.955   0.186   1.074  1.00  0.00    -0.507 OA
ATOM     24  H   UNL     1       2.523   0.543   1.795  1.00  0.00     0.293 HD
ENDBRANCH   6  23
BRANCH  13  25
ATOM     25  O   UNL     1       5.052  -1.577  -3.139  1.00  0.00    -0.507 OA
ATOM     26  H   UNL     1       6.002  -1.582  -2.882  1.00  0.00     0.293 HD
ENDBRANCH  13  25
BRANCH  12  27
ATOM     27  O   UNL     1      -0.110   0.268  -0.524  1.00  0.00    -0.344 OA
BRANCH  27  28
ATOM     28  C   UNL     1      -1.062  -0.401   0.301  1.00  0.00     0.252 C 
ATOM     29  C   UNL     1      -1.508   0.554   1.412  1.00  0.00     0.083 C 
ATOM     30  O   UNL     1      -2.157  -0.883  -0.494  1.00  0.00    -0.347 OA
ATOM     31  C   UNL     1      -2.961   0.307   1.805  1.00  0.00     0.087 C 
ATOM     32  C   UNL     1      -3.140   0.135  -0.747  1.00  0.00     0.149 C 
ATOM     33  C   UNL     1      -3.864   0.564   0.566  1.00  0.00     0.167 C 
ATOM     34  C   UNL     1      -4.084  -0.394  -1.822  1.00  0.00     0.041 C 
BRANCH  31  35
ATOM     35  N   UNL     1      -3.120  -1.052   2.372  1.00  0.00    -0.325 NA
ATOM     36  H   UNL     1      -4.096  -1.167   2.642  1.00  0.00     0.119 HD
ATOM     37  H   UNL     1      -3.037  -1.709   1.583  1.00  0.00     0.119 HD
ENDBRANCH  31  35
BRANCH  33  38
ATOM     38  O   UNL     1      -5.134  -0.098   0.703  1.00  0.00    -0.345 OA
BRANCH  38  39
ATOM     39  C   UNL     1      -6.026   0.543   1.618  1.00  0.00     0.250 C 
ATOM     40  C   UNL     1      -7.332  -0.256   1.621  1.00  0.00     0.062 C 
ATOM     41  O   UNL     1      -6.318   1.882   1.231  1.00  0.00    -0.353 OA
ATOM     42  C   UNL     1      -8.511   0.545   2.172  1.00  0.00     0.008 C 
ATOM     43  C   UNL     1      -7.056   2.590   2.235  1.00  0.00     0.163 C 
ATOM     44  C   UNL     1      -8.027   1.707   3.025  1.00  0.00     0.029 C 
ENDBRANCH  38  39
ENDBRANCH  33  38
ENDBRANCH  27  28
ENDBRANCH  12  27
BRANCH  10  45
ATOM     45  O   UNL     1       1.127  -0.136  -4.999  1.00  0.00    -0.382 OA
ATOM     46  H   UNL     1       0.980  -0.661  -5.820  1.00  0.00     0.212 HD
ENDBRANCH  10  45
BRANCH  10  47
ATOM     47  C   UNL     1       0.016  -2.164  -4.418  1.00  0.00     0.190 C 
ATOM     48  O   UNL     1      -0.009  -2.396  -5.637  1.00  0.00    -0.294 OA
BRANCH  47  49
ATOM     49  C   UNL     1      -0.760  -3.040  -3.438  1.00  0.00     0.234 C 
BRANCH  49  50
ATOM     50  O   UNL     1      -1.600  -3.966  -4.108  1.00  0.00    -0.388 OA
ATOM     51  H   UNL     1      -1.145  -4.242  -4.928  1.00  0.00     0.211 HD
ENDBRANCH  49  50
ENDBRANCH  47  49
ENDBRANCH  10  47
TORSDOF 12
