REMARK SMILES CC(C)(C)NCC(O)c1ccc(O)c(CO)n1
REMARK SMILES IDX 7 1 6 2 5 3 2 5 1 6 3 7 4 8 8 9 9 11 10 12 17 13 11 14 14 15
REMARK SMILES IDX 12 16 15 17 16 18 13 20
REMARK H PARENT 5 4 8 10 16 19 13 21
ROOT
ATOM      1  C   UNL     1       0.227  -0.281   0.737  1.00  0.00     0.177 C 
ENDROOT
BRANCH   1   2
ATOM      2  C   UNL     1       0.793   0.534  -0.452  1.00  0.00     0.119 C 
BRANCH   2   3
ATOM      3  N   UNL     1       2.238   0.804  -0.347  1.00  0.00    -0.309 NA
ATOM      4  H   UNL     1       2.467   0.820   0.653  1.00  0.00     0.123 HD
BRANCH   3   5
ATOM      5  C   UNL     1       3.154  -0.083  -1.077  1.00  0.00     0.010 C 
ATOM      6  C   UNL     1       2.958  -1.569  -0.745  1.00  0.00     0.027 C 
ATOM      7  C   UNL     1       3.019   0.138  -2.594  1.00  0.00     0.027 C 
ATOM      8  C   UNL     1       4.581   0.325  -0.658  1.00  0.00     0.027 C 
ENDBRANCH   3   5
ENDBRANCH   2   3
ENDBRANCH   1   2
BRANCH   1   9
ATOM      9  O   UNL     1       0.618   0.360   1.966  1.00  0.00    -0.385 OA
ATOM     10  H   UNL     1      -0.203   0.792   2.284  1.00  0.00     0.211 HD
ENDBRANCH   1   9
BRANCH   1  11
ATOM     11  C   UNL     1      -1.287  -0.373   0.662  1.00  0.00     0.071 A 
ATOM     12  C   UNL     1      -1.903  -1.286  -0.190  1.00  0.00     0.030 A 
ATOM     13  N   UNL     1      -1.990   0.480   1.455  1.00  0.00    -0.249 NA
ATOM     14  C   UNL     1      -3.294  -1.330  -0.233  1.00  0.00     0.050 A 
ATOM     15  C   UNL     1      -3.351   0.434   1.397  1.00  0.00     0.108 A 
ATOM     16  C   UNL     1      -4.027  -0.461   0.567  1.00  0.00     0.139 A 
BRANCH  15  17
ATOM     17  C   UNL     1      -4.105   1.423   2.251  1.00  0.00     0.216 C 
BRANCH  17  18
ATOM     18  O   UNL     1      -4.430   2.591   1.501  1.00  0.00    -0.390 OA
ATOM     19  H   UNL     1      -4.840   3.212   2.125  1.00  0.00     0.211 HD
ENDBRANCH  17  18
ENDBRANCH  15  17
BRANCH  16  20
ATOM     20  O   UNL     1      -5.391  -0.495   0.549  1.00  0.00    -0.506 OA
ATOM     21  H   UNL     1      -5.682  -1.036  -0.204  1.00  0.00     0.293 HD
ENDBRANCH  16  20
ENDBRANCH   1  11
TORSDOF 8
