REMARK SMILES Cc1cc(CC(C)CC(C)(C)C)n(O)c(=O)c1
REMARK SMILES IDX 7 1 6 2 5 3 4 4 3 5 13 6 2 7 15 8 17 9 16 10 1 11 14 12 8 14
REMARK SMILES IDX 9 15 10 16 11 17 12 18
REMARK H PARENT 14 13
ROOT
ATOM      1  C   UNL     1      -0.369  -0.590  -2.354  1.00  0.00     0.008 C 
ATOM      2  C   UNL     1      -0.696  -0.228  -0.896  1.00  0.00    -0.008 C 
ENDROOT
BRANCH   2   3
ATOM      3  C   UNL     1       0.162  -1.085   0.072  1.00  0.00     0.061 C 
BRANCH   3   4
ATOM      4  C   UNL     1       1.652  -0.799   0.175  1.00  0.00     0.062 C 
ATOM      5  C   UNL     1       2.278   0.277  -0.341  1.00  0.00     0.029 C 
ATOM      6  N   UNL     1       2.427  -1.708   0.868  1.00  0.00    -0.152 N 
ATOM      7  C   UNL     1       3.714   0.466  -0.189  1.00  0.00    -0.044 C 
ATOM      8  C   UNL     1       3.787  -1.623   1.083  1.00  0.00     0.283 C 
ATOM      9  C   UNL     1       4.446  -0.435   0.488  1.00  0.00     0.078 C 
ATOM     10  O   UNL     1       4.429  -2.455   1.720  1.00  0.00    -0.266 OA
ATOM     11  C   UNL     1       4.313   1.689  -0.813  1.00  0.00     0.044 C 
BRANCH   6  12
ATOM     12  O   UNL     1       1.766  -2.816   1.442  1.00  0.00    -0.425 OA
ATOM     13  H   UNL     1       2.512  -3.279   1.878  1.00  0.00     0.328 HD
ENDBRANCH   6  12
ENDBRANCH   3   4
ENDBRANCH   2   3
BRANCH   2  14
ATOM     14  C   UNL     1      -2.211  -0.461  -0.644  1.00  0.00     0.010 C 
BRANCH  14  15
ATOM     15  C   UNL     1      -2.939   0.584   0.251  1.00  0.00    -0.038 C 
ATOM     16  C   UNL     1      -4.391   0.105   0.459  1.00  0.00     0.011 C 
ATOM     17  C   UNL     1      -2.984   1.958  -0.442  1.00  0.00     0.011 C 
ATOM     18  C   UNL     1      -2.279   0.736   1.629  1.00  0.00     0.011 C 
ENDBRANCH  14  15
ENDBRANCH   2  14
TORSDOF 5
