REMARK SMILES CC(C(=O)O)c1ccc(N2CC=CC2)c(Cl)c1
REMARK SMILES IDX 3 1 4 2 2 3 1 4 6 5 17 6 7 7 15 8 8 9 9 10 16 11 10 12 11 13
REMARK SMILES IDX 14 14 12 15 13 16 5 17
REMARK H PARENT 5 18
ROOT
ATOM      1  C   UNL     1       3.637  -1.061  -1.299  1.00  0.00     0.310 C 
ATOM      2  O   UNL     1       3.025  -1.216  -2.343  1.00  0.00    -0.252 OA
ENDROOT
BRANCH   1   3
ATOM      3  C   UNL     1       3.187  -0.333  -0.042  1.00  0.00     0.126 C 
ATOM      4  C   UNL     1       3.894   1.020   0.050  1.00  0.00     0.025 C 
BRANCH   3   5
ATOM      5  C   UNL     1       1.677  -0.181   0.061  1.00  0.00    -0.032 A 
ATOM      6  C   UNL     1       0.980  -0.789   1.112  1.00  0.00     0.027 A 
ATOM      7  C   UNL     1       0.942   0.567  -0.864  1.00  0.00     0.007 A 
ATOM      8  C   UNL     1      -0.412  -0.652   1.232  1.00  0.00     0.064 A 
ATOM      9  C   UNL     1      -0.448   0.702  -0.742  1.00  0.00     0.028 A 
ATOM     10  C   UNL     1      -1.166   0.102   0.305  1.00  0.00     0.056 A 
ATOM     11  Cl  UNL     1      -1.145  -1.405   2.612  1.00  0.00    -0.082 Cl
BRANCH  10  12
ATOM     12  N   UNL     1      -2.550   0.223   0.404  1.00  0.00    -0.363 N 
ATOM     13  C   UNL     1      -3.330  -0.978   0.075  1.00  0.00     0.144 C 
ATOM     14  C   UNL     1      -3.258   1.444   0.011  1.00  0.00     0.144 C 
ATOM     15  C   UNL     1      -4.655  -0.404  -0.304  1.00  0.00    -0.008 C 
ATOM     16  C   UNL     1      -4.618   0.932  -0.330  1.00  0.00    -0.008 C 
ENDBRANCH  10  12
ENDBRANCH   3   5
ENDBRANCH   1   3
BRANCH   1  17
ATOM     17  O   UNL     1       4.889  -1.556  -1.181  1.00  0.00    -0.481 OA
ATOM     18  H   UNL     1       5.051  -1.991  -2.044  1.00  0.00     0.296 HD
ENDBRANCH   1  17
TORSDOF 4
