REMARK SMILES CC(C)(C)C(=O)NNCc1ccccc1
REMARK SMILES IDX 5 1 6 2 7 3 2 5 1 6 3 7 4 8 8 9 9 11 10 12 11 13 15 14 12 15
REMARK SMILES IDX 14 16 13 17
REMARK H PARENT 7 4 8 10
ROOT
ATOM      1  C   UNL     1      -1.652   0.570   0.107  1.00  0.00     0.239 C 
ATOM      2  O   UNL     1      -1.283   1.634  -0.387  1.00  0.00    -0.273 OA
ATOM      3  N   UNL     1      -0.776  -0.421   0.556  1.00  0.00    -0.291 N 
ATOM      4  H   UNL     1      -1.145  -1.211   1.076  1.00  0.00     0.184 HD
ENDROOT
BRANCH   1   5
ATOM      5  C   UNL     1      -3.145   0.209   0.264  1.00  0.00     0.042 C 
ATOM      6  C   UNL     1      -3.489   0.024   1.749  1.00  0.00     0.021 C 
ATOM      7  C   UNL     1      -4.008   1.352  -0.301  1.00  0.00     0.021 C 
ATOM      8  C   UNL     1      -3.461  -1.075  -0.517  1.00  0.00     0.021 C 
ENDBRANCH   1   5
BRANCH   3   9
ATOM      9  N   UNL     1       0.609  -0.156   0.628  1.00  0.00    -0.230 NA
ATOM     10  H   UNL     1       1.053  -0.772   1.310  1.00  0.00     0.148 HD
BRANCH   9  11
ATOM     11  C   UNL     1       1.266  -0.337  -0.672  1.00  0.00     0.140 C 
BRANCH  11  12
ATOM     12  C   UNL     1       2.761  -0.160  -0.544  1.00  0.00    -0.032 A 
ATOM     13  C   UNL     1       3.302   1.116  -0.326  1.00  0.00     0.005 A 
ATOM     14  C   UNL     1       3.627  -1.260  -0.622  1.00  0.00     0.005 A 
ATOM     15  C   UNL     1       4.680   1.289  -0.197  1.00  0.00     0.000 A 
ATOM     16  C   UNL     1       5.006  -1.084  -0.493  1.00  0.00     0.000 A 
ATOM     17  C   UNL     1       5.532   0.189  -0.281  1.00  0.00     0.000 A 
ENDBRANCH  11  12
ENDBRANCH   9  11
ENDBRANCH   3   9
TORSDOF 4
