REMARK SMILES CC(C)(C)C(=O)OCOC(=O)[C@@H]1N2C(=O)[C@@H](/N=C/N3CCCCCC3)[C@H]2SC1(C)C
REMARK SMILES IDX 12 1 13 2 26 3 27 4 28 5 29 6 30 7 16 8 14 9 15 10 10 11
REMARK SMILES IDX 11 12 9 13 8 14 7 15 5 16 6 17 2 18 1 19 3 20 4 21 17 22
REMARK SMILES IDX 18 23 19 24 20 25 21 26 22 27 23 28 24 29 25 31
REMARK H PARENT
REMARK Flexibility Score:   37.900
ROOT
ATOM      1  C   UNL     1       0.949   0.010   0.894  1.00  0.00     0.212 C 
ATOM      2  N   UNL     1      -0.222  -0.288   1.711  1.00  0.00    -0.311 N 
ATOM      3  C   UNL     1      -1.160  -1.299   1.197  1.00  0.00     0.179 C 
ATOM      4  S   UNL     1      -0.761  -1.509  -0.582  1.00  0.00    -0.125 SA
ATOM      5  C   UNL     1       0.569  -0.223  -0.586  1.00  0.00     0.044 C 
ATOM      6  C   UNL     1       1.719  -0.721  -1.470  1.00  0.00     0.026 C 
ATOM      7  C   UNL     1      -0.010   1.054  -1.220  1.00  0.00     0.026 C 
ATOM      8  C   UNL     1      -2.329  -0.358   1.601  1.00  0.00     0.229 C 
ATOM      9  C   UNL     1      -1.190   0.659   1.910  1.00  0.00     0.252 C 
ATOM     10  O   UNL     1      -1.070   1.837   2.156  1.00  0.00    -0.272 OA
ENDROOT
BRANCH   1  11
ATOM     11  C   UNL     1       2.091  -0.879   1.392  1.00  0.00     0.333 C 
ATOM     12  O   UNL     1       1.969  -1.998   1.876  1.00  0.00    -0.250 OA
BRANCH  11  13
ATOM     13  O   UNL     1       3.283  -0.248   1.203  1.00  0.00    -0.426 OA
BRANCH  13  14
ATOM     14  C   UNL     1       4.408  -1.047   1.568  1.00  0.00     0.474 C 
BRANCH  14  15
ATOM     15  O   UNL     1       5.625  -0.372   1.235  1.00  0.00    -0.427 OA
BRANCH  15  16
ATOM     16  C   UNL     1       5.944  -0.415  -0.088  1.00  0.00     0.314 C 
ATOM     17  O   UNL     1       5.284  -0.995  -0.941  1.00  0.00    -0.252 OA
BRANCH  16  18
ATOM     18  C   UNL     1       7.232   0.365  -0.365  1.00  0.00     0.060 C 
ATOM     19  C   UNL     1       8.383  -0.232   0.455  1.00  0.00     0.023 C 
ATOM     20  C   UNL     1       7.019   1.840   0.003  1.00  0.00     0.023 C 
ATOM     21  C   UNL     1       7.579   0.266  -1.860  1.00  0.00     0.023 C 
ENDBRANCH  16  18
ENDBRANCH  15  16
ENDBRANCH  14  15
ENDBRANCH  13  14
ENDBRANCH  11  13
ENDBRANCH   1  11
BRANCH   8  22
ATOM     22  N   UNL     1      -3.218   0.066   0.510  1.00  0.00    -0.259 NA
ATOM     23  C   UNL     1      -4.170  -0.767   0.255  1.00  0.00     0.190 C 
ATOM     24  N   UNL     1      -5.127  -0.612  -0.713  1.00  0.00    -0.363 N 
BRANCH  24  25
ATOM     25  C   UNL     1      -5.212   0.616  -1.496  1.00  0.00     0.117 C 
BRANCH  25  26
ATOM     26  C   UNL     1      -5.836   1.762  -0.705  1.00  0.00     0.021 C 
BRANCH  26  27
ATOM     27  C   UNL     1      -7.005   1.410   0.221  1.00  0.00     0.002 C 
BRANCH  27  28
ATOM     28  C   UNL     1      -7.946   0.309  -0.274  1.00  0.00     0.002 C 
BRANCH  28  29
ATOM     29  C   UNL     1      -7.428  -1.104   0.018  1.00  0.00     0.021 CG0
ATOM     30  G   UNL     1      -6.247  -1.532  -0.848  1.00  0.00     0.000 G0
ENDBRANCH  28  29
ENDBRANCH  27  28
ENDBRANCH  26  27
ENDBRANCH  25  26
ENDBRANCH  24  25
BRANCH  24  31
ATOM     31  C   UNL     1      -6.247  -1.532  -0.848  1.00  0.00     0.117 CG0
ATOM     32  G   UNL     1      -7.428  -1.104   0.018  1.00  0.00     0.000 G0
ENDBRANCH  24  31
ENDBRANCH   8  22
TORSDOF 7
