REMARK SMILES CN1CCC(=C2c3ccccc3CCc3sccc32)CC1
REMARK SMILES IDX 1 1 2 2 3 3 4 4 5 5 20 6 21 7 6 8 19 9 15 10 18 11 16 12
REMARK SMILES IDX 17 13 14 14 7 16 12 17 8 18 11 19 9 20 10 21 13 22
REMARK H PARENT
REMARK Flexibility Score:    8.900
ROOT
ATOM      1  C   UNL     1       4.541  -0.543  -1.202  1.00  0.00     0.105 C 
ATOM      2  N   UNL     1       3.189  -0.178  -0.798  1.00  0.00    -0.306 NA
ATOM      3  C   UNL     1       3.150   1.111  -0.104  1.00  0.00     0.088 C 
ATOM      4  C   UNL     1       1.695   1.571   0.123  1.00  0.00     0.047 C 
ATOM      5  C   UNL     1       0.754   0.458   0.576  1.00  0.00    -0.059 C 
ATOM      6  C   UNL     1       1.526  -0.765   1.042  1.00  0.00     0.047 C 
ATOM      7  C   UNL     1       2.555  -1.245  -0.004  1.00  0.00     0.088 C 
ATOM      8  C   UNL     1      -0.602   0.543   0.475  1.00  0.00    -0.010 C 
ENDROOT
BRANCH   8   9
ATOM      9  C   UNL     1      -1.277   1.700  -0.078  1.00  0.00    -0.004 A 
ATOM     10  C   UNL     1      -2.185   1.614  -1.124  1.00  0.00     0.013 A 
ATOM     11  C   UNL     1      -1.147   3.039   0.410  1.00  0.00     0.020 A 
ATOM     12  S   UNL     1      -2.808   3.164  -1.537  1.00  0.00    -0.148 S 
ATOM     13  C   UNL     1      -1.913   3.931  -0.304  1.00  0.00     0.066 A 
BRANCH  10  14
ATOM     14  C   UNL     1      -2.697   0.418  -1.892  1.00  0.00     0.052 CG0
ATOM     15  G   UNL     1      -1.966  -0.905  -1.633  1.00  0.00     0.000 G0
ENDBRANCH  10  14
ENDBRANCH   8   9
BRANCH   8  16
ATOM     16  C   UNL     1      -1.427  -0.647   0.827  1.00  0.00    -0.015 A 
ATOM     17  C   UNL     1      -2.082  -1.362  -0.195  1.00  0.00    -0.040 A 
ATOM     18  C   UNL     1      -1.599  -1.029   2.165  1.00  0.00     0.009 A 
ATOM     19  C   UNL     1      -2.867  -2.474   0.139  1.00  0.00     0.004 A 
ATOM     20  C   UNL     1      -2.384  -2.137   2.484  1.00  0.00     0.001 A 
ATOM     21  C   UNL     1      -3.012  -2.861   1.472  1.00  0.00     0.000 A 
BRANCH  17  22
ATOM     22  C   UNL     1      -1.966  -0.905  -1.633  1.00  0.00     0.042 CG0
ATOM     23  G   UNL     1      -2.697   0.418  -1.892  1.00  0.00     0.000 G0
ENDBRANCH  17  22
ENDBRANCH   8  16
TORSDOF 0
