REMARK SMILES CC(C)(Oc1ccc(Cl)cc1)C(=O)NC(=O)NCN1CCOCC1
REMARK SMILES IDX 1 1 2 2 3 3 4 4 5 5 6 6 11 7 7 8 10 9 8 10 9 11 12 12 13 13
REMARK SMILES IDX 14 14 15 15 16 16 17 17 18 20 19 21 20 22 24 23 21 24 23 25
REMARK SMILES IDX 22 26
REMARK H PARENT 14 18 17 19
ROOT
ATOM      1  C   UNL     1       2.414   1.591   0.936  1.00  0.00     0.067 C 
ATOM      2  C   UNL     1       2.470   1.516  -0.594  1.00  0.00     0.182 C 
ATOM      3  C   UNL     1       3.761   2.145  -1.131  1.00  0.00     0.067 C 
ENDROOT
BRANCH   2   4
ATOM      4  O   UNL     1       2.234   0.168  -1.080  1.00  0.00    -0.478 OA
BRANCH   4   5
ATOM      5  C   UNL     1       3.253  -0.724  -0.919  1.00  0.00     0.121 A 
ATOM      6  C   UNL     1       3.418  -1.415   0.279  1.00  0.00     0.048 A 
ATOM      7  C   UNL     1       4.053  -1.025  -2.022  1.00  0.00     0.048 A 
ATOM      8  C   UNL     1       4.437  -2.363   0.397  1.00  0.00     0.024 A 
ATOM      9  C   UNL     1       5.067  -1.978  -1.906  1.00  0.00     0.024 A 
ATOM     10  C   UNL     1       5.260  -2.638  -0.694  1.00  0.00     0.041 A 
ATOM     11  Cl  UNL     1       6.506  -3.812  -0.552  1.00  0.00    -0.084 Cl
ENDBRANCH   4   5
ENDBRANCH   2   4
BRANCH   2  12
ATOM     12  C   UNL     1       1.261   2.321  -1.137  1.00  0.00     0.271 C 
ATOM     13  O   UNL     1       1.340   3.487  -1.518  1.00  0.00    -0.270 OA
ATOM     14  N   UNL     1       0.082   1.606  -1.179  1.00  0.00    -0.275 N 
ATOM     15  C   UNL     1      -0.857   1.852  -0.211  1.00  0.00     0.322 C 
ATOM     16  O   UNL     1      -0.760   2.684   0.680  1.00  0.00    -0.248 OA
ATOM     17  N   UNL     1      -1.923   0.992  -0.331  1.00  0.00    -0.325 N 
ATOM     18  H   UNL     1       0.243   0.608  -1.239  1.00  0.00     0.174 HD
ATOM     19  H   UNL     1      -2.157   0.712  -1.272  1.00  0.00     0.166 HD
BRANCH  17  20
ATOM     20  C   UNL     1      -3.067   1.171   0.511  1.00  0.00     0.206 C 
BRANCH  20  21
ATOM     21  N   UNL     1      -3.981   0.094   0.165  1.00  0.00    -0.281 NA
ATOM     22  C   UNL     1      -5.343   0.359   0.681  1.00  0.00     0.115 C 
ATOM     23  C   UNL     1      -3.491  -1.216   0.656  1.00  0.00     0.115 C 
ATOM     24  C   UNL     1      -5.700  -0.448   1.940  1.00  0.00     0.175 C 
ATOM     25  C   UNL     1      -4.628  -2.243   0.776  1.00  0.00     0.175 C 
ATOM     26  O   UNL     1      -5.623  -1.866   1.737  1.00  0.00    -0.379 OA
ENDBRANCH  20  21
ENDBRANCH  17  20
ENDBRANCH   2  12
TORSDOF 5
