REMARK SMILES CN[C@@H]1[C@@H](O)[C@@H](O[C@@H]2[C@@H](O)[C@H](O[C@H]3OC(CNCCO)=CC[C@H]3N)[C@@H](N)C[C@H]2NC(=O)[C@@H](O)CCN)OC[C@]1(C)O
REMARK SMILES IDX 12 1 11 2 8 3 28 4 9 5 27 6 25 7 7 8 6 9 3 10 4 11 39 12
REMARK SMILES IDX 38 13 37 14 40 15 2 16 1 17 5 19 41 21 29 23 30 24 31 25
REMARK SMILES IDX 32 27 33 28 34 30 35 31 36 32 10 35 26 37 13 40 14 41 23 42
REMARK SMILES IDX 15 43 22 44 21 45 24 46 16 49 17 50 18 52 19 53 20 54
REMARK H PARENT 2 18 5 20 41 22 29 26 33 29 36 33 36 34 10 36 26 38 26 39
REMARK H PARENT 24 47 24 48 17 51 20 55
ROOT
ATOM      1  O   UNL     1       2.767  -0.428  -0.296  1.00  0.00    -0.334 OA
ENDROOT
BRANCH   1   2
ATOM      2  C   UNL     1       1.567   0.166  -0.812  1.00  0.00     0.170 C 
ATOM      3  C   UNL     1      -0.946   0.202  -0.289  1.00  0.00     0.175 C 
ATOM      4  C   UNL     1      -0.867   1.739  -0.173  1.00  0.00     0.115 C 
ATOM      5  C   UNL     1       0.411  -0.473  -0.028  1.00  0.00     0.176 C 
ATOM      6  C   UNL     1       0.289   2.332  -0.982  1.00  0.00     0.049 C 
ATOM      7  C   UNL     1       1.622   1.691  -0.607  1.00  0.00     0.085 C 
BRANCH   3   8
ATOM      8  O   UNL     1      -1.895  -0.211   0.711  1.00  0.00    -0.342 OA
BRANCH   8   9
ATOM      9  C   UNL     1      -2.539  -1.461   0.443  1.00  0.00     0.281 C 
ATOM     10  C   UNL     1      -4.897  -2.363   0.921  1.00  0.00     0.121 C 
ATOM     11  C   UNL     1      -4.062  -1.168   0.381  1.00  0.00     0.190 C 
ATOM     12  C   UNL     1      -4.161  -3.682   0.559  1.00  0.00     0.103 C 
ATOM     13  C   UNL     1      -2.779  -3.667   1.269  1.00  0.00     0.200 C 
ATOM     14  O   UNL     1      -2.275  -2.347   1.527  1.00  0.00    -0.347 OA
ATOM     15  C   UNL     1      -4.920  -4.956   0.944  1.00  0.00     0.046 C 
BRANCH  10  16
ATOM     16  N   UNL     1      -6.292  -2.244   0.399  1.00  0.00    -0.312 NA
ATOM     17  C   UNL     1      -7.288  -2.619   1.399  1.00  0.00     0.101 C 
ATOM     18  H   UNL     1      -6.448  -1.253   0.192  1.00  0.00     0.122 HD
ENDBRANCH  10  16
BRANCH  11  19
ATOM     19  O   UNL     1      -4.404   0.004   1.164  1.00  0.00    -0.386 OA
ATOM     20  H   UNL     1      -3.554   0.253   1.593  1.00  0.00     0.211 HD
ENDBRANCH  11  19
BRANCH  12  21
ATOM     21  O   UNL     1      -3.925  -3.693  -0.865  1.00  0.00    -0.386 OA
ATOM     22  H   UNL     1      -4.089  -4.593  -1.200  1.00  0.00     0.211 HD
ENDBRANCH  12  21
ENDBRANCH   8   9
ENDBRANCH   3   8
BRANCH   4  23
ATOM     23  N   UNL     1      -2.127   2.350  -0.613  1.00  0.00    -0.348 N 
ATOM     24  C   UNL     1      -2.619   3.517  -0.070  1.00  0.00     0.249 C 
ATOM     25  O   UNL     1      -2.137   4.070   0.914  1.00  0.00    -0.272 OA
ATOM     26  H   UNL     1      -2.527   2.083  -1.508  1.00  0.00     0.163 HD
BRANCH  24  27
ATOM     27  C   UNL     1      -3.845   4.067  -0.812  1.00  0.00     0.204 C 
BRANCH  27  28
ATOM     28  O   UNL     1      -3.603   3.953  -2.224  1.00  0.00    -0.383 OA
ATOM     29  H   UNL     1      -2.894   4.591  -2.431  1.00  0.00     0.211 HD
ENDBRANCH  27  28
BRANCH  27  30
ATOM     30  C   UNL     1      -5.126   3.297  -0.499  1.00  0.00     0.057 C 
BRANCH  30  31
ATOM     31  C   UNL     1      -5.699   3.569   0.892  1.00  0.00     0.081 C 
BRANCH  31  32
ATOM     32  N   UNL     1      -4.983   2.907   1.971  1.00  0.00    -0.330 NA
ATOM     33  H   UNL     1      -4.022   3.249   2.042  1.00  0.00     0.118 HD
ATOM     34  H   UNL     1      -4.919   1.903   1.766  1.00  0.00     0.118 HD
ENDBRANCH  31  32
ENDBRANCH  30  31
ENDBRANCH  27  30
ENDBRANCH  24  27
ENDBRANCH   4  23
BRANCH   5  35
ATOM     35  O   UNL     1       0.344  -1.858  -0.428  1.00  0.00    -0.388 OA
ATOM     36  H   UNL     1       1.191  -2.260  -0.138  1.00  0.00     0.211 HD
ENDBRANCH   5  35
BRANCH   7  37
ATOM     37  N   UNL     1       2.685   2.293  -1.428  1.00  0.00    -0.325 NA
ATOM     38  H   UNL     1       2.814   3.269  -1.152  1.00  0.00     0.119 HD
ATOM     39  H   UNL     1       3.569   1.823  -1.196  1.00  0.00     0.119 HD
ENDBRANCH   7  37
ENDBRANCH   1   2
BRANCH   1  40
ATOM     40  C   UNL     1       3.690  -0.877  -1.293  1.00  0.00     0.324 C 
ATOM     41  O   UNL     1       4.829  -0.000  -1.361  1.00  0.00    -0.467 OA
ATOM     42  C   UNL     1       4.106  -2.342  -0.991  1.00  0.00     0.124 C 
ATOM     43  C   UNL     1       5.774  -0.146  -0.359  1.00  0.00     0.109 C 
ATOM     44  C   UNL     1       4.866  -2.373   0.339  1.00  0.00     0.056 C 
ATOM     45  C   UNL     1       5.811  -1.219   0.451  1.00  0.00     0.018 C 
BRANCH  42  46
ATOM     46  N   UNL     1       2.972  -3.295  -0.957  1.00  0.00    -0.322 NA
ATOM     47  H   UNL     1       2.508  -3.302  -1.867  1.00  0.00     0.119 HD
ATOM     48  H   UNL     1       3.337  -4.237  -0.824  1.00  0.00     0.119 HD
ENDBRANCH  42  46
BRANCH  43  49
ATOM     49  C   UNL     1       6.734   1.026  -0.283  1.00  0.00     0.156 C 
BRANCH  49  50
ATOM     50  N   UNL     1       7.907   0.794   0.562  1.00  0.00    -0.308 NA
ATOM     51  H   UNL     1       8.521   0.120   0.114  1.00  0.00     0.123 HD
BRANCH  50  52
ATOM     52  C   UNL     1       8.657   2.020   0.859  1.00  0.00     0.109 C 
BRANCH  52  53
ATOM     53  C   UNL     1       9.283   2.723  -0.354  1.00  0.00     0.171 C 
BRANCH  53  54
ATOM     54  O   UNL     1      10.095   1.824  -1.104  1.00  0.00    -0.395 OA
ATOM     55  H   UNL     1       9.500   1.168  -1.500  1.00  0.00     0.210 HD
ENDBRANCH  53  54
ENDBRANCH  52  53
ENDBRANCH  50  52
ENDBRANCH  49  50
ENDBRANCH  43  49
ENDBRANCH   1  40
TORSDOF 21
