REMARK SMILES c1cc(CN2CCCNCCNCCCNCC2)ccc1CN1CCCNCCNCCCNCC1
REMARK SMILES IDX 3 1 2 2 1 3 21 4 20 5 19 6 4 7 5 8 6 9 7 10 8 11 9 12 10 14
REMARK SMILES IDX 18 16 17 17 16 18 15 20 14 21 13 22 12 23 11 25 22 27 23 28
REMARK SMILES IDX 24 29 25 30 26 31 27 32 28 34 29 35 30 36 31 38 36 40 35 41
REMARK SMILES IDX 34 42 33 44 32 45
REMARK H PARENT 9 13 16 19 12 24 27 33 30 37 34 43
REMARK Flexibility Score:   99.800
ROOT
ATOM      1  C   UNL     1      -1.204   0.829  -0.454  1.00  0.00    -0.034 A 
ATOM      2  C   UNL     1      -0.535   0.351   0.681  1.00  0.00     0.005 A 
ATOM      3  C   UNL     1       0.593  -0.461   0.550  1.00  0.00     0.005 A 
ATOM      4  C   UNL     1       1.073  -0.818  -0.718  1.00  0.00    -0.034 A 
ATOM      5  C   UNL     1       0.400  -0.345  -1.852  1.00  0.00     0.005 A 
ATOM      6  C   UNL     1      -0.725   0.473  -1.722  1.00  0.00     0.005 A 
ENDROOT
BRANCH   1   7
ATOM      7  C   UNL     1      -2.424   1.715  -0.307  1.00  0.00     0.120 C 
BRANCH   7   8
ATOM      8  N   UNL     1      -3.573   1.023   0.307  1.00  0.00    -0.298 NA
BRANCH   8   9
ATOM      9  C   UNL     1      -4.151   0.038  -0.627  1.00  0.00     0.086 C 
BRANCH   9  10
ATOM     10  C   UNL     1      -5.323  -0.789  -0.086  1.00  0.00     0.031 C 
BRANCH  10  11
ATOM     11  C   UNL     1      -4.967  -1.740   1.061  1.00  0.00     0.082 C 
BRANCH  11  12
ATOM     12  N   UNL     1      -6.075  -2.303   1.860  1.00  0.00    -0.315 NA
ATOM     13  H   UNL     1      -6.153  -1.776   2.729  1.00  0.00     0.122 HD
BRANCH  12  14
ATOM     14  C   UNL     1      -7.389  -2.359   1.202  1.00  0.00     0.096 CG0
ATOM     15  G   UNL     1      -8.272  -1.124   1.516  1.00  0.00     0.000 G0
ENDBRANCH  12  14
ENDBRANCH  11  12
ENDBRANCH  10  11
ENDBRANCH   9  10
ENDBRANCH   8   9
BRANCH   8  16
ATOM     16  C   UNL     1      -4.545   1.995   0.857  1.00  0.00     0.100 C 
BRANCH  16  17
ATOM     17  C   UNL     1      -5.323   2.944  -0.106  1.00  0.00     0.096 C 
BRANCH  17  18
ATOM     18  N   UNL     1      -6.443   2.345  -0.844  1.00  0.00    -0.315 NA
ATOM     19  H   UNL     1      -6.708   2.953  -1.619  1.00  0.00     0.122 HD
BRANCH  18  20
ATOM     20  C   UNL     1      -7.622   2.105  -0.002  1.00  0.00     0.082 C 
BRANCH  20  21
ATOM     21  C   UNL     1      -8.579   1.141  -0.717  1.00  0.00     0.030 C 
BRANCH  21  22
ATOM     22  C   UNL     1      -9.609   0.483   0.221  1.00  0.00     0.082 C 
BRANCH  22  23
ATOM     23  N   UNL     1      -9.309  -0.927   0.496  1.00  0.00    -0.315 NA
ATOM     24  H   UNL     1     -10.156  -1.408   0.796  1.00  0.00     0.122 HD
BRANCH  23  25
ATOM     25  C   UNL     1      -8.272  -1.124   1.516  1.00  0.00     0.096 CG0
ATOM     26  G   UNL     1      -7.389  -2.359   1.202  1.00  0.00     0.000 G0
ENDBRANCH  23  25
ENDBRANCH  22  23
ENDBRANCH  21  22
ENDBRANCH  20  21
ENDBRANCH  18  20
ENDBRANCH  17  18
ENDBRANCH  16  17
ENDBRANCH   8  16
ENDBRANCH   7   8
ENDBRANCH   1   7
BRANCH   4  27
ATOM     27  C   UNL     1       2.289  -1.709  -0.853  1.00  0.00     0.120 C 
BRANCH  27  28
ATOM     28  N   UNL     1       3.526  -1.123  -0.294  1.00  0.00    -0.298 NA
BRANCH  28  29
ATOM     29  C   UNL     1       3.932   0.076  -1.063  1.00  0.00     0.086 C 
BRANCH  29  30
ATOM     30  C   UNL     1       5.188   0.774  -0.523  1.00  0.00     0.031 C 
BRANCH  30  31
ATOM     31  C   UNL     1       5.508   2.055  -1.302  1.00  0.00     0.082 C 
BRANCH  31  32
ATOM     32  N   UNL     1       6.709   2.766  -0.832  1.00  0.00    -0.315 NA
ATOM     33  H   UNL     1       6.792   3.628  -1.374  1.00  0.00     0.122 HD
BRANCH  32  34
ATOM     34  C   UNL     1       7.949   1.991  -1.006  1.00  0.00     0.096 C 
BRANCH  34  35
ATOM     35  C   UNL     1       8.384   1.277   0.295  1.00  0.00     0.096 C 
BRANCH  35  36
ATOM     36  N   UNL     1       9.288   0.155   0.006  1.00  0.00    -0.315 NA
ATOM     37  H   UNL     1       8.904  -0.407  -0.750  1.00  0.00     0.122 HD
BRANCH  36  38
ATOM     38  C   UNL     1       9.534  -0.692   1.179  1.00  0.00     0.082 CG1
ATOM     39  G   UNL     1       8.321  -1.457   1.736  1.00  0.00     0.000 G1
ENDBRANCH  36  38
ENDBRANCH  35  36
ENDBRANCH  34  35
ENDBRANCH  32  34
ENDBRANCH  31  32
ENDBRANCH  30  31
ENDBRANCH  29  30
ENDBRANCH  28  29
BRANCH  28  40
ATOM     40  C   UNL     1       4.590  -2.147  -0.225  1.00  0.00     0.100 C 
BRANCH  40  41
ATOM     41  C   UNL     1       5.273  -2.154   1.166  1.00  0.00     0.096 C 
BRANCH  41  42
ATOM     42  N   UNL     1       6.456  -3.031   1.249  1.00  0.00    -0.315 NA
ATOM     43  H   UNL     1       6.265  -3.894   0.740  1.00  0.00     0.122 HD
BRANCH  42  44
ATOM     44  C   UNL     1       7.671  -2.404   0.719  1.00  0.00     0.082 C 
BRANCH  44  45
ATOM     45  C   UNL     1       8.321  -1.457   1.736  1.00  0.00     0.030 CG1
ATOM     46  G   UNL     1       9.534  -0.692   1.179  1.00  0.00     0.000 G1
ENDBRANCH  44  45
ENDBRANCH  42  44
ENDBRANCH  41  42
ENDBRANCH  40  41
ENDBRANCH  28  40
ENDBRANCH  27  28
ENDBRANCH   4  27
TORSDOF 4
