REMARK SMILES COc1cc2nc(N3CCN(C(=O)c4ccco4)CC3)nc(N)c2cc1OC
REMARK SMILES IDX 3 1 26 2 25 3 24 4 22 5 21 6 7 7 6 8 5 9 4 10 2 11 1 12
REMARK SMILES IDX 27 13 28 14 23 15 8 18 9 19 20 20 10 21 19 22 11 23 12 24
REMARK SMILES IDX 13 25 14 26 15 27 18 28 16 29 17 30
REMARK H PARENT 23 16 23 17
ROOT
ATOM      1  C   UNL     1      -4.821  -0.923   0.511  1.00  0.00     0.162 A 
ATOM      2  C   UNL     1      -5.242   0.394   0.263  1.00  0.00     0.161 A 
ATOM      3  C   UNL     1      -4.282   1.380   0.035  1.00  0.00     0.064 A 
ATOM      4  C   UNL     1      -2.902   1.061   0.049  1.00  0.00     0.047 A 
ATOM      5  C   UNL     1      -1.863   1.969  -0.158  1.00  0.00     0.137 A 
ATOM      6  N   UNL     1      -0.572   1.620  -0.172  1.00  0.00    -0.195 NA
ATOM      7  C   UNL     1      -0.266   0.333   0.041  1.00  0.00     0.228 A 
ATOM      8  N   UNL     1      -1.198  -0.602   0.279  1.00  0.00    -0.213 NA
ATOM      9  C   UNL     1      -2.487  -0.247   0.276  1.00  0.00     0.082 A 
ATOM     10  C   UNL     1      -3.452  -1.220   0.509  1.00  0.00     0.079 A 
ENDROOT
BRANCH   1  11
ATOM     11  O   UNL     1      -5.815  -1.843   0.736  1.00  0.00    -0.493 OA
ATOM     12  C   UNL     1      -5.427  -3.186   0.987  1.00  0.00     0.278 C 
ENDBRANCH   1  11
BRANCH   2  13
ATOM     13  O   UNL     1      -6.596   0.612   0.272  1.00  0.00    -0.493 OA
ATOM     14  C   UNL     1      -7.060   1.901  -0.102  1.00  0.00     0.278 C 
ENDBRANCH   2  13
BRANCH   5  15
ATOM     15  N   UNL     1      -2.109   3.331  -0.380  1.00  0.00    -0.383 N 
ATOM     16  H   UNL     1      -2.641   3.733   0.384  1.00  0.00     0.158 HD
ATOM     17  H   UNL     1      -1.200   3.780  -0.470  1.00  0.00     0.158 HD
ENDBRANCH   5  15
BRANCH   7  18
ATOM     18  N   UNL     1       1.063  -0.042   0.048  1.00  0.00    -0.337 N 
ATOM     19  C   UNL     1       1.381  -1.464  -0.120  1.00  0.00     0.141 C 
ATOM     20  C   UNL     1       2.061   0.946  -0.352  1.00  0.00     0.141 C 
ATOM     21  C   UNL     1       2.649  -1.674  -0.966  1.00  0.00     0.141 C 
ATOM     22  C   UNL     1       3.476   0.459   0.017  1.00  0.00     0.141 C 
ATOM     23  N   UNL     1       3.790  -0.875  -0.513  1.00  0.00    -0.332 N 
ATOM     24  C   UNL     1       5.072  -1.280  -0.905  1.00  0.00     0.289 C 
ATOM     25  O   UNL     1       5.207  -2.229  -1.680  1.00  0.00    -0.265 OA
BRANCH  24  26
ATOM     26  C   UNL     1       6.217  -0.566  -0.364  1.00  0.00     0.191 A 
ATOM     27  C   UNL     1       6.486   0.009   0.868  1.00  0.00     0.056 A 
ATOM     28  O   UNL     1       7.323  -0.432  -1.164  1.00  0.00    -0.459 OA
ATOM     29  C   UNL     1       7.799   0.537   0.802  1.00  0.00     0.043 A 
ATOM     30  C   UNL     1       8.264   0.241  -0.456  1.00  0.00     0.196 A 
ENDBRANCH  24  26
ENDBRANCH   7  18
TORSDOF 5
