REMARK SMILES CCCCC(=O)O[C@]1(C(=O)COC(C)=O)CC[C@H]2[C@@H]3CCC4=CC(=O)C=C[C@]4(C)[C@H]3[C@@H](O)C[C@@]21C
REMARK SMILES IDX 8 1 16 2 17 3 18 4 19 5 20 6 21 7 22 8 23 9 24 10 25 11
REMARK SMILES IDX 26 12 27 13 28 14 29 15 30 16 31 17 33 18 34 19 35 20 7 21
REMARK SMILES IDX 5 22 6 23 4 24 3 25 2 26 1 27 9 28 10 29 11 30 12 31 13 32
REMARK SMILES IDX 15 33 14 34 32 35
REMARK H PARENT 32 36
ROOT
ATOM      1  C   UNL     1       1.229   1.069   1.073  1.00  0.00     0.179 C 
ATOM      2  C   UNL     1       1.391   0.216   2.364  1.00  0.00     0.058 C 
ATOM      3  C   UNL     1       0.126  -0.658   2.475  1.00  0.00     0.009 C 
ATOM      4  C   UNL     1      -0.633  -0.420   1.173  1.00  0.00     0.003 C 
ATOM      5  C   UNL     1      -2.127  -0.773   1.113  1.00  0.00    -0.000 C 
ATOM      6  C   UNL     1      -2.355  -2.234   1.546  1.00  0.00     0.009 C 
ATOM      7  C   UNL     1      -3.807  -2.665   1.378  1.00  0.00     0.032 C 
ATOM      8  C   UNL     1      -4.261  -2.418  -0.038  1.00  0.00    -0.056 C 
ATOM      9  C   UNL     1      -4.690  -3.439  -0.801  1.00  0.00     0.052 C 
ATOM     10  C   UNL     1      -5.083  -3.247  -2.212  1.00  0.00     0.178 C 
ATOM     11  O   UNL     1      -5.481  -4.181  -2.898  1.00  0.00    -0.290 OA
ATOM     12  C   UNL     1      -4.971  -1.884  -2.764  1.00  0.00     0.048 C 
ATOM     13  C   UNL     1      -4.544  -0.864  -2.007  1.00  0.00    -0.012 C 
ATOM     14  C   UNL     1      -4.142  -0.969  -0.538  1.00  0.00     0.013 C 
ATOM     15  C   UNL     1      -5.152  -0.102   0.248  1.00  0.00     0.021 C 
ATOM     16  C   UNL     1      -2.636  -0.533  -0.352  1.00  0.00     0.035 C 
ATOM     17  C   UNL     1      -2.269   0.890  -0.871  1.00  0.00     0.119 C 
ATOM     18  C   UNL     1      -0.789   1.269  -0.638  1.00  0.00     0.043 C 
ATOM     19  C   UNL     1      -0.318   1.050   0.818  1.00  0.00     0.020 C 
ATOM     20  C   UNL     1      -1.012   2.054   1.783  1.00  0.00     0.016 C 
ENDROOT
BRANCH   1  21
ATOM     21  O   UNL     1       1.994   0.606  -0.080  1.00  0.00    -0.450 OA
BRANCH  21  22
ATOM     22  C   UNL     1       2.415  -0.662  -0.314  1.00  0.00     0.306 C 
ATOM     23  O   UNL     1       2.149  -1.648   0.354  1.00  0.00    -0.252 OA
BRANCH  22  24
ATOM     24  C   UNL     1       3.248  -0.669  -1.578  1.00  0.00     0.123 C 
BRANCH  24  25
ATOM     25  C   UNL     1       3.835  -2.041  -1.913  1.00  0.00     0.011 C 
BRANCH  25  26
ATOM     26  C   UNL     1       4.960  -2.505  -0.981  1.00  0.00    -0.003 C 
ATOM     27  C   UNL     1       6.217  -1.651  -1.071  1.00  0.00     0.004 C 
ENDBRANCH  25  26
ENDBRANCH  24  25
ENDBRANCH  22  24
ENDBRANCH  21  22
ENDBRANCH   1  21
BRANCH   1  28
ATOM     28  C   UNL     1       1.827   2.483   1.264  1.00  0.00     0.214 C 
ATOM     29  O   UNL     1       2.318   2.855   2.335  1.00  0.00    -0.291 OA
BRANCH  28  30
ATOM     30  C   UNL     1       1.787   3.437   0.064  1.00  0.00     0.312 C 
BRANCH  30  31
ATOM     31  O   UNL     1       2.818   4.428   0.107  1.00  0.00    -0.458 OA
BRANCH  31  32
ATOM     32  C   UNL     1       4.062   3.933  -0.142  1.00  0.00     0.303 C 
ATOM     33  O   UNL     1       4.312   2.769  -0.432  1.00  0.00    -0.253 OA
ATOM     34  C   UNL     1       5.102   5.002  -0.004  1.00  0.00     0.139 C 
ENDBRANCH  31  32
ENDBRANCH  30  31
ENDBRANCH  28  30
ENDBRANCH   1  28
BRANCH  17  35
ATOM     35  O   UNL     1      -3.080   1.885  -0.265  1.00  0.00    -0.393 OA
ATOM     36  H   UNL     1      -3.499   2.411  -0.970  1.00  0.00     0.210 HD
ENDBRANCH  17  35
TORSDOF 10
