REMARK SMILES C[C@]12C=CC(=O)C=C1CC[C@@H]1[C@@H]2[C@@H](O)C[C@@]2(C)[C@H]1CC[C@]2(O)C(=O)COC(=O)c1cccc(S(=O)(=O)O)c1
REMARK SMILES IDX 26 1 25 2 23 3 24 4 21 5 16 6 15 7 18 8 13 9 11 10 19 11
REMARK SMILES IDX 20 12 12 13 10 14 2 15 9 16 3 17 8 18 4 19 7 20 5 21 6 22
REMARK SMILES IDX 17 23 1 24 22 25 14 27 27 29 28 30 29 31 38 32 30 33 33 34
REMARK SMILES IDX 31 35 32 36 34 37 35 38 36 39 37 40
REMARK H PARENT 22 26 14 28 37 41
ROOT
ATOM      1  O   UNL     1       3.808  -1.593  -1.372  1.00  0.00    -0.454 OA
ENDROOT
BRANCH   1   2
ATOM      2  C   UNL     1       2.457  -1.993  -1.605  1.00  0.00     0.311 C 
BRANCH   2   3
ATOM      3  C   UNL     1       1.756  -2.439  -0.322  1.00  0.00     0.202 C 
ATOM      4  O   UNL     1       2.400  -2.738   0.689  1.00  0.00    -0.293 OA
BRANCH   3   5
ATOM      5  C   UNL     1       0.213  -2.512  -0.365  1.00  0.00     0.132 C 
ATOM      6  C   UNL     1      -0.497  -1.174   0.017  1.00  0.00     0.009 C 
ATOM      7  C   UNL     1      -0.598  -0.115  -1.100  1.00  0.00     0.042 C 
ATOM      8  C   UNL     1      -1.927  -1.703   0.274  1.00  0.00     0.002 C 
ATOM      9  C   UNL     1      -1.607   1.012  -0.790  1.00  0.00     0.119 C 
ATOM     10  C   UNL     1      -2.914  -0.621   0.739  1.00  0.00    -0.000 C 
ATOM     11  C   UNL     1      -1.702  -2.921   1.164  1.00  0.00     0.008 C 
ATOM     12  C   UNL     1      -0.375  -3.525   0.661  1.00  0.00     0.044 C 
ATOM     13  C   UNL     1      -3.012   0.482  -0.373  1.00  0.00     0.035 C 
ATOM     14  C   UNL     1      -4.293  -1.239   1.034  1.00  0.00     0.009 C 
ATOM     15  C   UNL     1      -4.087   1.583  -0.027  1.00  0.00     0.013 C 
ATOM     16  C   UNL     1      -5.343  -0.186   1.365  1.00  0.00     0.032 C 
ATOM     17  C   UNL     1      -4.254   2.544  -1.201  1.00  0.00    -0.012 C 
ATOM     18  C   UNL     1      -5.403   0.848   0.271  1.00  0.00    -0.056 C 
ATOM     19  C   UNL     1      -5.391   2.742  -1.882  1.00  0.00     0.048 C 
ATOM     20  C   UNL     1      -6.544   1.050  -0.413  1.00  0.00     0.052 C 
ATOM     21  C   UNL     1      -6.622   2.009  -1.533  1.00  0.00     0.178 C 
ATOM     22  O   UNL     1      -7.664   2.183  -2.153  1.00  0.00    -0.290 OA
ATOM     23  C   UNL     1       0.161  -0.570   1.289  1.00  0.00     0.015 C 
ATOM     24  C   UNL     1      -3.733   2.456   1.198  1.00  0.00     0.021 C 
BRANCH   5  25
ATOM     25  O   UNL     1      -0.193  -2.932  -1.674  1.00  0.00    -0.381 OA
ATOM     26  H   UNL     1      -0.045  -3.892  -1.750  1.00  0.00     0.212 HD
ENDBRANCH   5  25
BRANCH   9  27
ATOM     27  O   UNL     1      -1.070   1.875   0.203  1.00  0.00    -0.393 OA
ATOM     28  H   UNL     1      -0.174   2.137  -0.079  1.00  0.00     0.210 HD
ENDBRANCH   9  27
ENDBRANCH   3   5
ENDBRANCH   2   3
ENDBRANCH   1   2
BRANCH   1  29
ATOM     29  C   UNL     1       3.936  -0.339  -0.873  1.00  0.00     0.338 C 
ATOM     30  O   UNL     1       3.027   0.462  -0.720  1.00  0.00    -0.246 OA
BRANCH  29  31
ATOM     31  C   UNL     1       5.355  -0.040  -0.548  1.00  0.00     0.061 A 
ATOM     32  C   UNL     1       5.693   1.279  -0.221  1.00  0.00     0.038 A 
ATOM     33  C   UNL     1       6.348  -1.032  -0.541  1.00  0.00     0.016 A 
ATOM     34  C   UNL     1       7.017   1.590   0.101  1.00  0.00     0.095 A 
ATOM     35  C   UNL     1       7.669  -0.710  -0.216  1.00  0.00     0.002 A 
ATOM     36  C   UNL     1       8.007   0.603   0.107  1.00  0.00     0.023 A 
BRANCH  34  37
ATOM     37  S   UNL     1       7.463   3.249   0.528  1.00  0.00     0.294 S 
ATOM     38  O   UNL     1       6.255   3.987   0.826  1.00  0.00    -0.194 OA
ATOM     39  O   UNL     1       8.422   3.708  -0.450  1.00  0.00    -0.194 OA
BRANCH  37  40
ATOM     40  O   UNL     1       8.221   3.102   1.944  1.00  0.00    -0.282 OA
ATOM     41  H   UNL     1       7.771   3.698   2.581  1.00  0.00     0.234 HD
ENDBRANCH  37  40
ENDBRANCH  34  37
ENDBRANCH  29  31
ENDBRANCH   1  29
TORSDOF 9
