REMARK SMILES CCCNC(C)C(=O)Nc1ccccc1C
REMARK SMILES IDX 4 1 3 3 2 4 1 5 5 6 6 7 7 8 8 9 9 10 10 12 15 13 11 14 14 15
REMARK SMILES IDX 12 16 13 17 16 18
REMARK H PARENT 4 2 9 11
ROOT
ATOM      1  N   UNL     1       2.526  -0.435  -0.431  1.00  0.00    -0.306 NA
ATOM      2  H   UNL     1       2.398  -1.334   0.045  1.00  0.00     0.123 HD
ENDROOT
BRANCH   1   3
ATOM      3  C   UNL     1       3.066   0.511   0.552  1.00  0.00     0.081 C 
BRANCH   3   4
ATOM      4  C   UNL     1       4.311  -0.060   1.240  1.00  0.00     0.012 C 
ATOM      5  C   UNL     1       5.470  -0.303   0.283  1.00  0.00     0.005 C 
ENDBRANCH   3   4
ENDBRANCH   1   3
BRANCH   1   6
ATOM      6  C   UNL     1       1.203  -0.054  -0.984  1.00  0.00     0.141 C 
ATOM      7  C   UNL     1       1.142   1.397  -1.466  1.00  0.00     0.035 C 
BRANCH   6   8
ATOM      8  C   UNL     1       0.062  -0.402   0.019  1.00  0.00     0.241 C 
ATOM      9  O   UNL     1       0.305  -0.903   1.116  1.00  0.00    -0.273 OA
ATOM     10  N   UNL     1      -1.202  -0.149  -0.495  1.00  0.00    -0.324 N 
ATOM     11  H   UNL     1      -1.237   0.152  -1.458  1.00  0.00     0.169 HD
BRANCH  10  12
ATOM     12  C   UNL     1      -2.456  -0.317   0.142  1.00  0.00     0.044 A 
ATOM     13  C   UNL     1      -3.633  -0.057  -0.597  1.00  0.00    -0.027 A 
ATOM     14  C   UNL     1      -2.573  -0.717   1.478  1.00  0.00     0.026 A 
ATOM     15  C   UNL     1      -4.887  -0.213   0.023  1.00  0.00     0.005 A 
ATOM     16  C   UNL     1      -3.826  -0.868   2.078  1.00  0.00     0.002 A 
ATOM     17  C   UNL     1      -4.983  -0.617   1.352  1.00  0.00     0.000 A 
ATOM     18  C   UNL     1      -3.605   0.383  -2.036  1.00  0.00     0.046 C 
ENDBRANCH  10  12
ENDBRANCH   6   8
ENDBRANCH   1   6
TORSDOF 5
