REMARK SMILES O=C(O)CCc1nc2ccccc2[nH]1
REMARK SMILES IDX 4 1 2 2 1 3 3 4 5 6 6 7 7 8 14 9 8 10 13 11 9 12 12 13 10 14
REMARK SMILES IDX 11 15
REMARK H PARENT 3 5 14 16
ROOT
ATOM      1  C   UNL     1       2.636   0.771  -0.446  1.00  0.00     0.130 C 
ENDROOT
BRANCH   1   2
ATOM      2  C   UNL     1       4.117   0.642  -0.247  1.00  0.00     0.303 C 
ATOM      3  O   UNL     1       4.700  -0.184   0.434  1.00  0.00    -0.252 OA
BRANCH   2   4
ATOM      4  O   UNL     1       4.806   1.575  -0.932  1.00  0.00    -0.481 OA
ATOM      5  H   UNL     1       5.745   1.389  -0.724  1.00  0.00     0.296 HD
ENDBRANCH   2   4
ENDBRANCH   1   2
BRANCH   1   6
ATOM      6  C   UNL     1       1.896  -0.289   0.363  1.00  0.00     0.087 C 
BRANCH   6   7
ATOM      7  C   UNL     1       0.419  -0.213   0.178  1.00  0.00     0.107 A 
ATOM      8  N   UNL     1      -0.266   0.751  -0.403  1.00  0.00    -0.233 NA
ATOM      9  N   UNL     1      -0.420  -1.202   0.634  1.00  0.00    -0.342 N 
ATOM     10  C   UNL     1      -1.584   0.371  -0.325  1.00  0.00     0.089 A 
ATOM     11  C   UNL     1      -1.708  -0.853   0.322  1.00  0.00     0.065 A 
ATOM     12  C   UNL     1      -2.736   1.023  -0.786  1.00  0.00     0.030 A 
ATOM     13  C   UNL     1      -2.935  -1.483   0.543  1.00  0.00     0.028 A 
ATOM     14  C   UNL     1      -3.980   0.414  -0.579  1.00  0.00     0.002 A 
ATOM     15  C   UNL     1      -4.075  -0.818   0.074  1.00  0.00     0.002 A 
ATOM     16  H   UNL     1      -0.135  -2.042   1.116  1.00  0.00     0.168 HD
ENDBRANCH   6   7
ENDBRANCH   1   6
TORSDOF 4
