REMARK SMILES CCN(CC)C(C)CN1c2ccccc2Sc2ccccc21
REMARK SMILES IDX 3 1 2 2 1 3 4 4 5 5 6 6 7 7 8 8 9 9 10 10 22 11 11 12 15 13
REMARK SMILES IDX 17 14 21 15 12 16 14 17 16 18 18 19 20 20 13 21 19 22
REMARK H PARENT
ROOT
ATOM      1  N   UNL     1       2.351   0.400  -0.099  1.00  0.00    -0.299 NA
ENDROOT
BRANCH   1   2
ATOM      2  C   UNL     1       3.018   1.245   0.900  1.00  0.00     0.081 C 
ATOM      3  C   UNL     1       3.460   0.560   2.188  1.00  0.00     0.021 C 
ENDBRANCH   1   2
BRANCH   1   4
ATOM      4  C   UNL     1       3.183  -0.653  -0.690  1.00  0.00     0.081 C 
ATOM      5  C   UNL     1       4.414  -0.119  -1.416  1.00  0.00     0.021 C 
ENDBRANCH   1   4
BRANCH   1   6
ATOM      6  C   UNL     1       0.984  -0.031   0.301  1.00  0.00     0.073 C 
ATOM      7  C   UNL     1       0.905  -1.436   0.917  1.00  0.00     0.026 C 
BRANCH   6   8
ATOM      8  C   UNL     1       0.031   0.118  -0.932  1.00  0.00     0.141 C 
BRANCH   8   9
ATOM      9  N   UNL     1      -1.412   0.082  -0.563  1.00  0.00    -0.338 N 
ATOM     10  C   UNL     1      -1.963   1.298  -0.040  1.00  0.00     0.055 A 
ATOM     11  C   UNL     1      -2.133  -1.134  -0.765  1.00  0.00     0.055 A 
ATOM     12  C   UNL     1      -1.200   2.485   0.099  1.00  0.00     0.027 A 
ATOM     13  C   UNL     1      -3.309   1.391   0.369  1.00  0.00     0.036 A 
ATOM     14  C   UNL     1      -3.496  -1.255  -0.421  1.00  0.00     0.036 A 
ATOM     15  C   UNL     1      -1.543  -2.296  -1.317  1.00  0.00     0.027 A 
ATOM     16  C   UNL     1      -1.730   3.679   0.607  1.00  0.00     0.002 A 
ATOM     17  C   UNL     1      -3.838   2.595   0.880  1.00  0.00     0.017 A 
ATOM     18  S   UNL     1      -4.461   0.046   0.300  1.00  0.00    -0.086 SA
ATOM     19  C   UNL     1      -4.203  -2.460  -0.627  1.00  0.00     0.017 A 
ATOM     20  C   UNL     1      -2.248  -3.491  -1.519  1.00  0.00     0.002 A 
ATOM     21  C   UNL     1      -3.054   3.735   0.999  1.00  0.00     0.001 A 
ATOM     22  C   UNL     1      -3.584  -3.575  -1.175  1.00  0.00     0.001 A 
ENDBRANCH   8   9
ENDBRANCH   6   8
ENDBRANCH   1   6
TORSDOF 5
