REMARK SMILES O=C(O)[C@@H]1CCCN1
REMARK SMILES IDX 2 1 1 2 3 3 4 5 5 6 8 7 6 8 7 9
REMARK H PARENT 3 4 8 10
ROOT
ATOM      1  C   UNL     1       1.940   0.079  -0.355  1.00  0.00     0.320 C 
ATOM      2  O   UNL     1       2.399   0.690  -1.309  1.00  0.00    -0.251 OA
ENDROOT
BRANCH   1   3
ATOM      3  O   UNL     1       2.680  -0.885   0.235  1.00  0.00    -0.480 OA
ATOM      4  H   UNL     1       3.489  -0.917  -0.318  1.00  0.00     0.296 HD
ENDBRANCH   1   3
BRANCH   1   5
ATOM      5  C   UNL     1       0.618   0.342   0.359  1.00  0.00     0.164 C 
ATOM      6  C   UNL     1      -0.105  -0.914   0.833  1.00  0.00     0.032 C 
ATOM      7  N   UNL     1      -0.367   0.967  -0.546  1.00  0.00    -0.304 NA
ATOM      8  C   UNL     1      -1.590  -0.622   0.636  1.00  0.00     0.017 C 
ATOM      9  C   UNL     1      -1.650   0.806   0.124  1.00  0.00     0.082 C 
ATOM     10  H   UNL     1      -0.134   1.945  -0.709  1.00  0.00     0.123 HD
ENDBRANCH   1   5
TORSDOF 2
