REMARK SMILES CCCNCC(O)COc1ccccc1C(=O)CCc1ccccc1
REMARK SMILES IDX 8 1 6 2 5 3 4 4 3 6 2 7 1 8 7 9 9 11 10 12 15 13 11 14 14 15
REMARK SMILES IDX 12 16 13 17 16 18 17 19 18 20 19 21 20 22 21 23 25 24 22 25
REMARK SMILES IDX 24 26 23 27
REMARK H PARENT 4 5 7 10
ROOT
ATOM      1  C   UNL     1       2.282  -1.595  -1.182  1.00  0.00     0.262 C 
ENDROOT
BRANCH   1   2
ATOM      2  C   UNL     1       2.777  -0.362  -0.408  1.00  0.00     0.165 C 
BRANCH   2   3
ATOM      3  C   UNL     1       4.305  -0.423  -0.190  1.00  0.00     0.116 C 
BRANCH   3   4
ATOM      4  N   UNL     1       4.959   0.869   0.100  1.00  0.00    -0.314 NA
ATOM      5  H   UNL     1       5.959   0.701   0.196  1.00  0.00     0.122 HD
BRANCH   4   6
ATOM      6  C   UNL     1       4.458   1.484   1.331  1.00  0.00     0.081 C 
BRANCH   6   7
ATOM      7  C   UNL     1       5.226   2.764   1.689  1.00  0.00     0.012 C 
ATOM      8  C   UNL     1       6.690   2.535   2.042  1.00  0.00     0.005 C 
ENDBRANCH   6   7
ENDBRANCH   4   6
ENDBRANCH   3   4
ENDBRANCH   2   3
BRANCH   2   9
ATOM      9  O   UNL     1       2.120  -0.341   0.870  1.00  0.00    -0.388 OA
ATOM     10  H   UNL     1       1.154  -0.237   0.691  1.00  0.00     0.211 HD
ENDBRANCH   2   9
ENDBRANCH   1   2
BRANCH   1  11
ATOM     11  O   UNL     1       0.953  -1.312  -1.647  1.00  0.00    -0.490 OA
BRANCH  11  12
ATOM     12  C   UNL     1       0.070  -2.342  -1.484  1.00  0.00     0.130 A 
ATOM     13  C   UNL     1      -1.156  -2.081  -0.858  1.00  0.00     0.060 A 
ATOM     14  C   UNL     1       0.316  -3.606  -2.026  1.00  0.00     0.047 A 
ATOM     15  C   UNL     1      -2.121  -3.090  -0.747  1.00  0.00     0.016 A 
ATOM     16  C   UNL     1      -0.646  -4.612  -1.912  1.00  0.00     0.004 A 
ATOM     17  C   UNL     1      -1.860  -4.356  -1.273  1.00  0.00     0.001 A 
BRANCH  13  18
ATOM     18  C   UNL     1      -1.413  -0.747  -0.269  1.00  0.00     0.166 C 
ATOM     19  O   UNL     1      -0.592  -0.261   0.508  1.00  0.00    -0.294 OA
BRANCH  18  20
ATOM     20  C   UNL     1      -2.683  -0.027  -0.661  1.00  0.00     0.086 C 
BRANCH  20  21
ATOM     21  C   UNL     1      -3.536   0.254   0.571  1.00  0.00     0.044 C 
BRANCH  21  22
ATOM     22  C   UNL     1      -4.726   1.120   0.240  1.00  0.00    -0.048 A 
ATOM     23  C   UNL     1      -4.730   2.478   0.591  1.00  0.00     0.004 A 
ATOM     24  C   UNL     1      -5.827   0.592  -0.445  1.00  0.00     0.004 A 
ATOM     25  C   UNL     1      -5.820   3.288   0.269  1.00  0.00     0.000 A 
ATOM     26  C   UNL     1      -6.916   1.402  -0.772  1.00  0.00     0.000 A 
ATOM     27  C   UNL     1      -6.912   2.751  -0.413  1.00  0.00     0.000 A 
ENDBRANCH  21  22
ENDBRANCH  20  21
ENDBRANCH  18  20
ENDBRANCH  13  18
ENDBRANCH  11  12
ENDBRANCH   1  11
TORSDOF 12
