REMARK SMILES CC(C(=O)N1c2ccccc2Sc2ccccc21)[N+]1(C)CCCC1
REMARK SMILES IDX 19 1 20 2 21 3 22 4 23 5 24 6 2 7 1 8 3 9 4 10 5 11 6 12
REMARK SMILES IDX 18 13 7 14 11 15 13 16 17 17 8 18 10 19 12 20 14 21 16 22
REMARK SMILES IDX 9 23 15 24
REMARK H PARENT
ROOT
ATOM      1  N   UNL     1      -2.342  -0.368   0.618  1.00  0.00    -0.316 N 
ATOM      2  C   UNL     1      -2.215  -0.592   2.131  1.00  0.00     0.335 C 
ATOM      3  C   UNL     1      -3.065   0.977   0.367  1.00  0.00     0.264 C 
ATOM      4  C   UNL     1      -4.195   0.635  -0.586  1.00  0.00     0.067 C 
ATOM      5  C   UNL     1      -4.602  -0.759  -0.164  1.00  0.00     0.067 C 
ATOM      6  C   UNL     1      -3.278  -1.463   0.058  1.00  0.00     0.264 C 
ENDROOT
BRANCH   1   7
ATOM      7  C   UNL     1      -0.891  -0.415  -0.050  1.00  0.00     0.273 C 
ATOM      8  C   UNL     1      -0.960  -0.122  -1.558  1.00  0.00     0.086 C 
BRANCH   7   9
ATOM      9  C   UNL     1       0.140   0.583   0.585  1.00  0.00     0.289 C 
ATOM     10  O   UNL     1      -0.244   1.502   1.309  1.00  0.00    -0.267 OA
ATOM     11  N   UNL     1       1.461   0.383   0.158  1.00  0.00    -0.274 N 
ATOM     12  C   UNL     1       2.109  -0.882   0.396  1.00  0.00     0.063 A 
ATOM     13  C   UNL     1       2.226   1.455  -0.436  1.00  0.00     0.063 A 
ATOM     14  C   UNL     1       1.673  -1.685   1.472  1.00  0.00     0.028 A 
ATOM     15  C   UNL     1       3.195  -1.343  -0.362  1.00  0.00     0.036 A 
ATOM     16  C   UNL     1       3.350   1.211  -1.249  1.00  0.00     0.036 A 
ATOM     17  C   UNL     1       1.842   2.800  -0.265  1.00  0.00     0.028 A 
ATOM     18  C   UNL     1       2.256  -2.925   1.746  1.00  0.00     0.002 A 
ATOM     19  C   UNL     1       3.771  -2.594  -0.088  1.00  0.00     0.017 A 
ATOM     20  S   UNL     1       3.869  -0.423  -1.710  1.00  0.00    -0.086 SA
ATOM     21  C   UNL     1       4.066   2.275  -1.827  1.00  0.00     0.017 A 
ATOM     22  C   UNL     1       2.561   3.854  -0.839  1.00  0.00     0.002 A 
ATOM     23  C   UNL     1       3.300  -3.385   0.957  1.00  0.00     0.001 A 
ATOM     24  C   UNL     1       3.677   3.593  -1.617  1.00  0.00     0.001 A 
ENDBRANCH   7   9
ENDBRANCH   1   7
TORSDOF 2
