REMARK SMILES CCC(Oc1ccccc1)C(=O)N[C@@H]1C(=O)N2[C@@H]1SC(C)(C)[C@@H]2C(=O)O
REMARK SMILES IDX 14 1 18 2 19 3 20 4 21 5 22 6 23 7 17 8 15 9 16 10 13 11
REMARK SMILES IDX 11 12 12 13 3 15 2 16 1 17 4 18 5 19 6 20 10 21 7 22 9 23
REMARK SMILES IDX 8 24 24 25 25 26 26 27
REMARK H PARENT 13 14 26 28
ROOT
ATOM      1  C   UNL     1      -1.028   2.029  -0.746  1.00  0.00     0.205 C 
ATOM      2  C   UNL     1      -1.715   0.720  -1.207  1.00  0.00     0.176 C 
ATOM      3  S   UNL     1      -1.462  -0.803  -0.205  1.00  0.00    -0.125 SA
ATOM      4  C   UNL     1      -3.295  -1.060  -0.053  1.00  0.00     0.044 C 
ATOM      5  C   UNL     1      -3.563  -1.912   1.190  1.00  0.00     0.026 C 
ATOM      6  C   UNL     1      -3.780  -1.794  -1.311  1.00  0.00     0.026 C 
ATOM      7  C   UNL     1      -3.838   0.373   0.100  1.00  0.00     0.211 C 
ATOM      8  N   UNL     1      -2.987   1.264  -0.689  1.00  0.00    -0.311 N 
ATOM      9  C   UNL     1      -2.386   2.327  -0.074  1.00  0.00     0.250 C 
ATOM     10  O   UNL     1      -2.785   3.080   0.785  1.00  0.00    -0.272 OA
ENDROOT
BRANCH   1  11
ATOM     11  N   UNL     1       0.136   1.913   0.173  1.00  0.00    -0.339 N 
ATOM     12  C   UNL     1       1.347   1.432  -0.282  1.00  0.00     0.261 C 
ATOM     13  O   UNL     1       1.495   1.145  -1.468  1.00  0.00    -0.271 OA
ATOM     14  H   UNL     1       0.064   2.285   1.114  1.00  0.00     0.164 HD
BRANCH  12  15
ATOM     15  C   UNL     1       2.456   1.322   0.796  1.00  0.00     0.261 C 
BRANCH  15  16
ATOM     16  C   UNL     1       2.213   0.221   1.851  1.00  0.00     0.052 C 
ATOM     17  C   UNL     1       1.214   0.597   2.938  1.00  0.00     0.008 C 
ENDBRANCH  15  16
BRANCH  15  18
ATOM     18  O   UNL     1       3.795   1.305   0.296  1.00  0.00    -0.481 OA
BRANCH  18  19
ATOM     19  C   UNL     1       4.350   0.196  -0.271  1.00  0.00     0.120 A 
ATOM     20  C   UNL     1       5.746   0.235  -0.359  1.00  0.00     0.046 A 
ATOM     21  C   UNL     1       3.675  -0.918  -0.766  1.00  0.00     0.046 A 
ATOM     22  C   UNL     1       6.460  -0.830  -0.912  1.00  0.00     0.004 A 
ATOM     23  C   UNL     1       4.388  -1.986  -1.321  1.00  0.00     0.004 A 
ATOM     24  C   UNL     1       5.779  -1.945  -1.391  1.00  0.00     0.000 A 
ENDBRANCH  18  19
ENDBRANCH  15  18
ENDBRANCH  12  15
ENDBRANCH   1  11
BRANCH   7  25
ATOM     25  C   UNL     1      -5.293   0.525  -0.323  1.00  0.00     0.327 C 
ATOM     26  O   UNL     1      -5.716   0.911  -1.401  1.00  0.00    -0.250 OA
BRANCH  25  27
ATOM     27  O   UNL     1      -6.157   0.131   0.637  1.00  0.00    -0.480 OA
ATOM     28  H   UNL     1      -7.041   0.305   0.248  1.00  0.00     0.296 HD
ENDBRANCH  25  27
ENDBRANCH   7  25
TORSDOF 7
