REMARK SMILES CCCO
REMARK SMILES IDX 3 1 2 2 1 3 4 4
REMARK H PARENT 4 5
ROOT
ATOM      1  C   UNL     1       0.913  -0.356  -0.663  1.00  0.00     0.155 C 
ENDROOT
BRANCH   1   2
ATOM      2  C   UNL     1      -0.141   0.649  -0.217  1.00  0.00     0.025 C 
ATOM      3  C   UNL     1      -1.306  -0.015   0.502  1.00  0.00     0.006 C 
ENDBRANCH   1   2
BRANCH   1   4
ATOM      4  O   UNL     1       1.492  -1.013   0.456  1.00  0.00    -0.396 OA
ATOM      5  H   UNL     1       1.881  -0.330   1.028  1.00  0.00     0.210 HD
ENDBRANCH   1   4
TORSDOF 2
