REMARK SMILES CC(CN1C(=O)c2cccnc2Nc2ccccc21)N(C)C
REMARK SMILES IDX 1 1 2 2 3 3 4 4 19 5 5 6 18 7 14 8 7 9 6 10 17 11 15 12
REMARK SMILES IDX 13 13 12 14 8 15 16 16 11 17 9 18 10 19 20 21 21 22 22 23
REMARK H PARENT 13 20
ROOT
ATOM      1  C   UNL     1      -3.587  -0.707   1.875  1.00  0.00     0.026 C 
ATOM      2  C   UNL     1      -2.335  -0.805   0.984  1.00  0.00     0.072 C 
ENDROOT
BRANCH   2   3
ATOM      3  C   UNL     1      -1.367   0.367   1.358  1.00  0.00     0.145 C 
BRANCH   3   4
ATOM      4  N   UNL     1      -0.007   0.272   0.786  1.00  0.00    -0.305 N 
ATOM      5  C   UNL     1       0.433   1.294  -0.121  1.00  0.00     0.068 A 
ATOM      6  C   UNL     1       0.771  -0.791   1.273  1.00  0.00     0.262 C 
ATOM      7  C   UNL     1      -0.037   2.614   0.037  1.00  0.00     0.028 A 
ATOM      8  C   UNL     1       1.279   1.027  -1.214  1.00  0.00     0.064 A 
ATOM      9  C   UNL     1       2.147  -1.080   0.826  1.00  0.00     0.083 A 
ATOM     10  O   UNL     1       0.347  -1.528   2.172  1.00  0.00    -0.269 OA
ATOM     11  C   UNL     1       0.268   3.625  -0.878  1.00  0.00     0.002 A 
ATOM     12  C   UNL     1       1.552   2.049  -2.149  1.00  0.00     0.028 A 
ATOM     13  N   UNL     1       1.848  -0.241  -1.455  1.00  0.00    -0.338 N 
ATOM     14  C   UNL     1       2.594  -0.889  -0.469  1.00  0.00     0.143 A 
ATOM     15  C   UNL     1       3.014  -1.715   1.732  1.00  0.00     0.019 A 
ATOM     16  C   UNL     1       1.052   3.338  -1.983  1.00  0.00     0.002 A 
ATOM     17  N   UNL     1       3.819  -1.302  -0.889  1.00  0.00    -0.238 NA
ATOM     18  C   UNL     1       4.278  -2.124   1.324  1.00  0.00     0.021 A 
ATOM     19  C   UNL     1       4.630  -1.903   0.009  1.00  0.00     0.113 A 
ATOM     20  H   UNL     1       2.456  -0.244  -2.271  1.00  0.00     0.168 HD
ENDBRANCH   3   4
ENDBRANCH   2   3
BRANCH   2  21
ATOM     21  N   UNL     1      -2.789  -0.931  -0.423  1.00  0.00    -0.305 NA
ATOM     22  C   UNL     1      -3.177   0.322  -1.062  1.00  0.00     0.105 C 
ATOM     23  C   UNL     1      -1.828  -1.654  -1.253  1.00  0.00     0.105 C 
ENDBRANCH   2  21
TORSDOF 3
