REMARK SMILES CCOC(=O)/C(=C/c1ncc([N+](=O)[O-])n1C)C(C)=O
REMARK SMILES IDX 4 1 5 2 3 3 2 4 1 5 6 6 7 7 17 8 19 9 18 10 8 11 9 12 15 13
REMARK SMILES IDX 10 14 11 15 16 16 12 17 13 18 14 19
REMARK H PARENT
ROOT
ATOM      1  C   UNL     1       2.147   0.638  -0.335  1.00  0.00     0.341 C 
ATOM      2  O   UNL     1       3.001   1.314   0.219  1.00  0.00    -0.246 OA
ENDROOT
BRANCH   1   3
ATOM      3  O   UNL     1       2.315  -0.038  -1.501  1.00  0.00    -0.462 OA
BRANCH   3   4
ATOM      4  C   UNL     1       3.613   0.071  -2.109  1.00  0.00     0.230 C 
ATOM      5  C   UNL     1       3.657   1.284  -3.019  1.00  0.00     0.049 C 
ENDBRANCH   3   4
ENDBRANCH   1   3
BRANCH   1   6
ATOM      6  C   UNL     1       0.780   0.465   0.205  1.00  0.00     0.108 C 
ATOM      7  C   UNL     1      -0.191  -0.162  -0.486  1.00  0.00     0.093 C 
BRANCH   6   8
ATOM      8  C   UNL     1       0.493   0.988   1.569  1.00  0.00     0.167 C 
ATOM      9  O   UNL     1       0.190   0.209   2.474  1.00  0.00    -0.294 OA
ATOM     10  C   UNL     1       0.619   2.470   1.796  1.00  0.00     0.094 C 
ENDBRANCH   6   8
BRANCH   7  11
ATOM     11  C   UNL     1      -1.529  -0.198  -0.022  1.00  0.00     0.221 A 
ATOM     12  N   UNL     1      -2.311   0.829   0.254  1.00  0.00    -0.209 NA
ATOM     13  N   UNL     1      -2.188  -1.398   0.191  1.00  0.00    -0.209 N 
ATOM     14  C   UNL     1      -3.513   0.297   0.645  1.00  0.00     0.218 A 
ATOM     15  C   UNL     1      -3.462  -1.071   0.586  1.00  0.00     0.342 A 
ATOM     16  C   UNL     1      -1.614  -2.722   0.101  1.00  0.00     0.299 C 
BRANCH  15  17
ATOM     17  N   UNL     1      -4.501  -1.998   0.873  1.00  0.00    -0.026 N 
ATOM     18  O   UNL     1      -4.370  -3.153   0.452  1.00  0.00    -0.358 OA
ATOM     19  O   UNL     1      -5.470  -1.562   1.503  1.00  0.00    -0.358 OA
ENDBRANCH  15  17
ENDBRANCH   7  11
ENDBRANCH   1   6
TORSDOF 6
