REMARK SMILES CCC(c1ccccc1)c1noc(CCN(CC)CC)n1
REMARK SMILES IDX 14 1 13 2 10 3 11 4 21 5 12 6 3 7 2 8 1 9 4 10 5 11 9 12
REMARK SMILES IDX 6 13 8 14 7 15 15 16 16 17 17 18 18 19 19 20 20 21
REMARK H PARENT
ROOT
ATOM      1  C   UNL     1      -1.677   1.099  -0.077  1.00  0.00     0.116 C 
ENDROOT
BRANCH   1   2
ATOM      2  C   UNL     1      -0.295   0.761   0.337  1.00  0.00     0.227 A 
ATOM      3  C   UNL     1       1.645   0.037   0.639  1.00  0.00     0.179 A 
ATOM      4  N   UNL     1       1.507   0.963   1.602  1.00  0.00    -0.062 NA
ATOM      5  N   UNL     1       0.530  -0.136  -0.151  1.00  0.00    -0.195 NA
ATOM      6  O   UNL     1       0.219   1.456   1.392  1.00  0.00    -0.339 OA
BRANCH   3   7
ATOM      7  C   UNL     1       2.882  -0.791   0.455  1.00  0.00     0.091 C 
BRANCH   7   8
ATOM      8  C   UNL     1       3.520  -1.244   1.781  1.00  0.00     0.013 C 
ATOM      9  C   UNL     1       4.678  -2.214   1.576  1.00  0.00     0.005 C 
ENDBRANCH   7   8
BRANCH   7  10
ATOM     10  C   UNL     1       3.784   0.035  -0.451  1.00  0.00    -0.037 A 
ATOM     11  C   UNL     1       3.886  -0.294  -1.814  1.00  0.00     0.004 A 
ATOM     12  C   UNL     1       4.526   1.130   0.025  1.00  0.00     0.004 A 
ATOM     13  C   UNL     1       4.710   0.440  -2.669  1.00  0.00     0.000 A 
ATOM     14  C   UNL     1       5.349   1.863  -0.832  1.00  0.00     0.000 A 
ATOM     15  C   UNL     1       5.443   1.517  -2.178  1.00  0.00     0.000 A 
ENDBRANCH   7  10
ENDBRANCH   3   7
ENDBRANCH   1   2
BRANCH   1  16
ATOM     16  C   UNL     1      -2.693   0.257   0.707  1.00  0.00     0.094 C 
BRANCH  16  17
ATOM     17  N   UNL     1      -4.098   0.626   0.423  1.00  0.00    -0.303 NA
BRANCH  17  18
ATOM     18  C   UNL     1      -4.991   0.204   1.518  1.00  0.00     0.081 C 
ATOM     19  C   UNL     1      -5.149  -1.301   1.722  1.00  0.00     0.021 C 
ENDBRANCH  17  18
BRANCH  17  20
ATOM     20  C   UNL     1      -4.524   0.161  -0.908  1.00  0.00     0.081 C 
ATOM     21  C   UNL     1      -5.926   0.618  -1.302  1.00  0.00     0.021 C 
ENDBRANCH  17  20
ENDBRANCH  16  17
ENDBRANCH   1  16
TORSDOF 8
