REMARK SMILES CCCN1C[C@@H](NS(=O)(=O)N(CC)CC)C[C@@H]2Cc3c(O)cccc3C[C@H]21
REMARK SMILES IDX 7 1 6 3 4 4 5 5 27 6 26 7 17 8 16 9 25 10 18 11 19 12 24 13
REMARK SMILES IDX 20 14 23 15 22 16 3 17 2 18 1 19 21 20 8 22 9 23 10 24 11 25
REMARK SMILES IDX 12 26 13 27 14 28 15 29
REMARK H PARENT 7 2 21 21
ROOT
ATOM      1  N   UNL     1       2.083  -0.012   0.086  1.00  0.00    -0.198 NA
ATOM      2  H   UNL     1       1.825   0.477  -0.768  1.00  0.00     0.142 HD
ENDROOT
BRANCH   1   3
ATOM      3  C   UNL     1       0.901  -0.370   0.924  1.00  0.00     0.085 C 
ATOM      4  N   UNL     1      -1.376  -1.366   0.766  1.00  0.00    -0.298 NA
ATOM      5  C   UNL     1      -0.027  -1.379   0.194  1.00  0.00     0.104 C 
ATOM      6  C   UNL     1      -2.059  -0.056   0.613  1.00  0.00     0.064 C 
ATOM      7  C   UNL     1      -3.130   0.058  -0.499  1.00  0.00     0.055 C 
ATOM      8  C   UNL     1      -1.065   1.115   0.406  1.00  0.00     0.013 C 
ATOM      9  C   UNL     1       0.169   0.934   1.289  1.00  0.00     0.027 C 
ATOM     10  C   UNL     1      -3.715   1.451  -0.625  1.00  0.00    -0.040 A 
ATOM     11  C   UNL     1      -1.776   2.445   0.679  1.00  0.00     0.045 C 
ATOM     12  C   UNL     1      -3.081   2.585  -0.072  1.00  0.00    -0.003 A 
ATOM     13  C   UNL     1      -4.912   1.604  -1.348  1.00  0.00     0.004 A 
ATOM     14  C   UNL     1      -3.707   3.834  -0.214  1.00  0.00     0.119 A 
ATOM     15  C   UNL     1      -5.496   2.859  -1.503  1.00  0.00     0.004 A 
ATOM     16  C   UNL     1      -4.894   3.974  -0.931  1.00  0.00     0.046 A 
BRANCH   4  17
ATOM     17  C   UNL     1      -2.195  -2.532   0.419  1.00  0.00     0.084 C 
BRANCH  17  18
ATOM     18  C   UNL     1      -1.659  -3.850   0.998  1.00  0.00     0.012 C 
ATOM     19  C   UNL     1      -2.635  -4.995   0.763  1.00  0.00     0.005 C 
ENDBRANCH  17  18
ENDBRANCH   4  17
BRANCH  14  20
ATOM     20  O   UNL     1      -3.207   4.983   0.332  1.00  0.00    -0.508 OA
ATOM     21  H   UNL     1      -2.537   4.757   0.996  1.00  0.00     0.293 HD
ENDBRANCH  14  20
ENDBRANCH   1   3
BRANCH   1  22
ATOM     22  S   UNL     1       3.119  -1.272  -0.312  1.00  0.00     0.279 S 
ATOM     23  O   UNL     1       2.695  -1.725  -1.616  1.00  0.00    -0.195 OA
ATOM     24  O   UNL     1       3.228  -2.159   0.818  1.00  0.00    -0.195 OA
BRANCH  22  25
ATOM     25  N   UNL     1       4.539  -0.414  -0.478  1.00  0.00    -0.190 NA
BRANCH  25  26
ATOM     26  C   UNL     1       5.359  -0.109   0.707  1.00  0.00     0.100 C 
ATOM     27  C   UNL     1       4.756   0.986   1.569  1.00  0.00     0.022 C 
ENDBRANCH  25  26
BRANCH  25  28
ATOM     28  C   UNL     1       4.759   0.422  -1.666  1.00  0.00     0.100 C 
ATOM     29  C   UNL     1       5.712  -0.290  -2.612  1.00  0.00     0.022 C 
ENDBRANCH  25  28
ENDBRANCH  22  25
ENDBRANCH   1  22
TORSDOF 8
