REMARK SMILES O=C(Oc1ccc2c(c1)CCCN2C(=O)C(Cl)Cl)c1ccco1
REMARK SMILES IDX 13 1 12 2 11 3 10 4 8 5 9 6 4 7 5 8 6 9 7 10 14 11 15 12
REMARK SMILES IDX 16 13 17 14 18 15 3 16 2 17 1 18 19 19 20 20 23 21 21 22
REMARK SMILES IDX 22 23
REMARK H PARENT
ROOT
ATOM      1  N   UNL     1      -3.041   0.330  -0.065  1.00  0.00    -0.310 N 
ATOM      2  C   UNL     1      -3.705  -0.915   0.354  1.00  0.00     0.126 C 
ATOM      3  C   UNL     1      -2.834  -2.155   0.276  1.00  0.00     0.027 C 
ATOM      4  C   UNL     1      -1.589  -1.936   1.108  1.00  0.00     0.039 C 
ATOM      5  C   UNL     1      -0.887  -0.694   0.635  1.00  0.00    -0.020 A 
ATOM      6  C   UNL     1       0.509  -0.626   0.792  1.00  0.00     0.053 A 
ATOM      7  C   UNL     1       1.205   0.486   0.331  1.00  0.00     0.131 A 
ATOM      8  C   UNL     1       0.533   1.550  -0.248  1.00  0.00     0.049 A 
ATOM      9  C   UNL     1      -0.858   1.492  -0.384  1.00  0.00     0.030 A 
ATOM     10  C   UNL     1      -1.601   0.390   0.076  1.00  0.00     0.047 A 
ENDROOT
BRANCH   1  11
ATOM     11  C   UNL     1      -3.812   1.512  -0.237  1.00  0.00     0.260 C 
ATOM     12  O   UNL     1      -3.372   2.644  -0.010  1.00  0.00    -0.271 OA
BRANCH  11  13
ATOM     13  C   UNL     1      -5.258   1.326  -0.723  1.00  0.00     0.261 C 
ATOM     14  Cl  UNL     1      -5.748   2.694  -1.757  1.00  0.00    -0.095 Cl
ATOM     15  Cl  UNL     1      -6.340   1.208   0.682  1.00  0.00    -0.095 Cl
ENDBRANCH  11  13
ENDBRANCH   1  11
BRANCH   7  16
ATOM     16  O   UNL     1       2.588   0.602   0.503  1.00  0.00    -0.421 OA
BRANCH  16  17
ATOM     17  C   UNL     1       3.368  -0.339  -0.170  1.00  0.00     0.379 C 
ATOM     18  O   UNL     1       2.938  -1.232  -0.892  1.00  0.00    -0.242 OA
BRANCH  17  19
ATOM     19  C   UNL     1       4.761  -0.085   0.125  1.00  0.00     0.211 A 
ATOM     20  C   UNL     1       5.398   0.869   0.902  1.00  0.00     0.058 A 
ATOM     21  O   UNL     1       5.706  -0.908  -0.432  1.00  0.00    -0.457 OA
ATOM     22  C   UNL     1       6.789   0.615   0.810  1.00  0.00     0.043 A 
ATOM     23  C   UNL     1       6.922  -0.476  -0.014  1.00  0.00     0.196 A 
ENDBRANCH  17  19
ENDBRANCH  16  17
ENDBRANCH   7  16
TORSDOF 5
