REMARK SMILES CCC(=O)NCC[C@@H]1CCc2ccc3c(c21)CCO3
REMARK SMILES IDX 3 1 4 2 5 3 2 5 1 6 6 7 7 8 8 9 9 10 16 11 10 12 11 13 15 14
REMARK SMILES IDX 12 15 14 16 17 17 13 18 19 19 18 20
REMARK H PARENT 5 4
ROOT
ATOM      1  C   UNL     1       3.707   0.018   0.207  1.00  0.00     0.219 C 
ATOM      2  O   UNL     1       4.298  -0.652  -0.632  1.00  0.00    -0.275 OA
ATOM      3  N   UNL     1       2.472   0.598  -0.011  1.00  0.00    -0.356 N 
ATOM      4  H   UNL     1       2.184   1.328   0.628  1.00  0.00     0.163 HD
ENDROOT
BRANCH   1   5
ATOM      5  C   UNL     1       4.243   0.292   1.599  1.00  0.00     0.096 C 
ATOM      6  C   UNL     1       5.587  -0.371   1.842  1.00  0.00     0.014 C 
ENDBRANCH   1   5
BRANCH   3   7
ATOM      7  C   UNL     1       1.853   0.563  -1.320  1.00  0.00     0.116 C 
BRANCH   7   8
ATOM      8  C   UNL     1       0.333   0.679  -1.238  1.00  0.00     0.029 C 
BRANCH   8   9
ATOM      9  C   UNL     1      -0.335  -0.514  -0.536  1.00  0.00     0.022 C 
ATOM     10  C   UNL     1      -0.298  -1.825  -1.357  1.00  0.00     0.013 C 
ATOM     11  C   UNL     1      -1.821  -0.317  -0.420  1.00  0.00    -0.035 A 
ATOM     12  C   UNL     1      -1.560  -1.844  -2.234  1.00  0.00     0.036 C 
ATOM     13  C   UNL     1      -2.514  -1.066  -1.382  1.00  0.00    -0.044 A 
ATOM     14  C   UNL     1      -2.534   0.476   0.447  1.00  0.00     0.001 A 
ATOM     15  C   UNL     1      -3.901  -1.004  -1.502  1.00  0.00     0.008 A 
ATOM     16  C   UNL     1      -3.917   0.528   0.337  1.00  0.00     0.122 A 
ATOM     17  C   UNL     1      -2.094   1.401   1.510  1.00  0.00     0.081 C 
ATOM     18  C   UNL     1      -4.619  -0.187  -0.623  1.00  0.00     0.047 A 
ATOM     19  O   UNL     1      -4.506   1.367   1.250  1.00  0.00    -0.493 OA
ATOM     20  C   UNL     1      -3.442   1.640   2.192  1.00  0.00     0.234 C 
ENDBRANCH   8   9
ENDBRANCH   7   8
ENDBRANCH   3   7
TORSDOF 4
