REMARK SMILES CO[C@H]1O[C@H](CNC(=O)N(CCCl)N=O)[C@@H](O)[C@H](O)[C@H]1O
REMARK SMILES IDX 7 1 8 2 9 3 6 5 5 6 3 7 4 8 20 9 18 10 16 11 2 12 1 13 21 14
REMARK SMILES IDX 19 16 17 18 10 20 11 21 12 22 13 23 14 24 15 25
REMARK H PARENT 7 4 21 15 19 17 17 19
ROOT
ATOM      1  N   UNL     1       1.489   0.142   0.584  1.00  0.00    -0.334 N 
ATOM      2  C   UNL     1       2.619   0.900   0.755  1.00  0.00     0.340 C 
ATOM      3  O   UNL     1       2.554   2.127   0.839  1.00  0.00    -0.247 OA
ATOM      4  H   UNL     1       1.645  -0.731   0.084  1.00  0.00     0.165 HD
ENDROOT
BRANCH   1   5
ATOM      5  C   UNL     1       0.203   0.776   0.365  1.00  0.00     0.152 C 
BRANCH   5   6
ATOM      6  C   UNL     1      -0.989  -0.197   0.376  1.00  0.00     0.172 C 
ATOM      7  C   UNL     1      -3.314   0.063  -0.296  1.00  0.00     0.281 C 
ATOM      8  O   UNL     1      -2.179   0.607   0.383  1.00  0.00    -0.342 OA
ATOM      9  C   UNL     1      -3.395  -1.471  -0.175  1.00  0.00     0.202 C 
ATOM     10  C   UNL     1      -2.153  -2.127  -0.782  1.00  0.00     0.179 C 
ATOM     11  C   UNL     1      -0.945  -1.175  -0.808  1.00  0.00     0.176 C 
BRANCH   7  12
ATOM     12  O   UNL     1      -4.516   0.586   0.284  1.00  0.00    -0.353 OA
ATOM     13  C   UNL     1      -4.598   2.004   0.146  1.00  0.00     0.198 C 
ENDBRANCH   7  12
BRANCH   9  14
ATOM     14  O   UNL     1      -3.470  -1.835   1.222  1.00  0.00    -0.385 OA
ATOM     15  H   UNL     1      -4.082  -1.181   1.620  1.00  0.00     0.211 HD
ENDBRANCH   9  14
BRANCH  10  16
ATOM     16  O   UNL     1      -2.421  -2.546  -2.129  1.00  0.00    -0.387 OA
ATOM     17  H   UNL     1      -1.597  -2.953  -2.462  1.00  0.00     0.211 HD
ENDBRANCH  10  16
BRANCH  11  18
ATOM     18  O   UNL     1       0.263  -1.947  -0.851  1.00  0.00    -0.388 OA
ATOM     19  H   UNL     1       0.269  -2.545  -0.077  1.00  0.00     0.211 HD
ENDBRANCH  11  18
ENDBRANCH   5   6
ENDBRANCH   1   5
BRANCH   2  20
ATOM     20  N   UNL     1       3.834   0.225   0.824  1.00  0.00    -0.177 N 
BRANCH  20  21
ATOM     21  C   UNL     1       5.063   1.004   0.960  1.00  0.00     0.169 C 
BRANCH  21  22
ATOM     22  C   UNL     1       5.498   1.607  -0.371  1.00  0.00     0.133 C 
ATOM     23  Cl  UNL     1       7.063   2.445  -0.200  1.00  0.00    -0.125 Cl
ENDBRANCH  21  22
ENDBRANCH  20  21
BRANCH  20  24
ATOM     24  N   UNL     1       4.036  -1.256   0.708  1.00  0.00     0.061 NA
ATOM     25  O   UNL     1       3.009  -1.931   0.619  1.00  0.00    -0.125 OA
ENDBRANCH  20  24
ENDBRANCH   2  20
TORSDOF 10
