REMARK SMILES CC(CN1CC(=O)NC(=O)C1)N1CC(=O)NC(=O)C1
REMARK SMILES IDX 1 1 2 2 3 3 4 4 5 5 11 6 6 7 9 8 7 9 8 10 10 11 12 13 13 14
REMARK SMILES IDX 19 15 14 16 17 17 15 18 16 19 18 20
REMARK H PARENT 8 12 16 21
ROOT
ATOM      1  C   UNL     1      -0.256  -2.144   0.565  1.00  0.00     0.026 C 
ATOM      2  C   UNL     1      -0.465  -0.828  -0.201  1.00  0.00     0.068 C 
ENDROOT
BRANCH   2   3
ATOM      3  C   UNL     1       0.371   0.329   0.436  1.00  0.00     0.104 C 
BRANCH   3   4
ATOM      4  N   UNL     1       1.825   0.081   0.524  1.00  0.00    -0.284 NA
ATOM      5  C   UNL     1       2.463   1.114   1.370  1.00  0.00     0.185 C 
ATOM      6  C   UNL     1       2.467   0.071  -0.808  1.00  0.00     0.185 C 
ATOM      7  C   UNL     1       3.966   0.876   1.498  1.00  0.00     0.240 C 
ATOM      8  C   UNL     1       3.975  -0.156  -0.697  1.00  0.00     0.240 C 
ATOM      9  O   UNL     1       4.640   1.387   2.390  1.00  0.00    -0.273 OA
ATOM     10  N   UNL     1       4.558   0.136   0.508  1.00  0.00    -0.294 N 
ATOM     11  O   UNL     1       4.658  -0.507  -1.658  1.00  0.00    -0.273 OA
ATOM     12  H   UNL     1       5.561   0.044   0.556  1.00  0.00     0.172 HD
ENDBRANCH   3   4
ENDBRANCH   2   3
BRANCH   2  13
ATOM     13  N   UNL     1      -1.917  -0.565  -0.352  1.00  0.00    -0.281 NA
ATOM     14  C   UNL     1      -2.202   0.419  -1.414  1.00  0.00     0.186 C 
ATOM     15  C   UNL     1      -2.612  -0.184   0.891  1.00  0.00     0.186 C 
ATOM     16  C   UNL     1      -3.706   0.542  -1.656  1.00  0.00     0.240 C 
ATOM     17  C   UNL     1      -4.119  -0.068   0.657  1.00  0.00     0.240 C 
ATOM     18  O   UNL     1      -4.168   1.047  -2.678  1.00  0.00    -0.273 OA
ATOM     19  N   UNL     1      -4.529   0.148  -0.633  1.00  0.00    -0.294 N 
ATOM     20  O   UNL     1      -4.930  -0.078   1.582  1.00  0.00    -0.273 OA
ATOM     21  H   UNL     1      -5.518   0.293  -0.771  1.00  0.00     0.172 HD
ENDBRANCH   2  13
TORSDOF 3
