REMARK SMILES Cc1ccc2c([nH]c(=O)c3c(=O)cc(C(=O)OCCC(C)C)oc32)c1C
REMARK SMILES IDX 18 1 19 2 20 3 21 4 22 5 17 6 15 7 16 8 14 9 13 10 23 11
REMARK SMILES IDX 11 12 24 13 12 14 10 15 5 16 8 17 6 18 4 19 7 20 9 21 25 22
REMARK SMILES IDX 3 23 2 24 26 26 1 27
REMARK H PARENT 7 25
ROOT
ATOM      1  C   UNL     1       4.190   0.870  -1.230  1.00  0.00     0.233 C 
ENDROOT
BRANCH   1   2
ATOM      2  C   UNL     1       4.860  -0.287  -0.492  1.00  0.00     0.045 C 
BRANCH   2   3
ATOM      3  C   UNL     1       6.339  -0.034  -0.160  1.00  0.00    -0.014 C 
ATOM      4  C   UNL     1       6.963  -1.299   0.434  1.00  0.00     0.007 C 
ATOM      5  C   UNL     1       6.526   1.137   0.807  1.00  0.00     0.007 C 
ENDBRANCH   2   3
ENDBRANCH   1   2
BRANCH   1   6
ATOM      6  O   UNL     1       2.863   0.488  -1.633  1.00  0.00    -0.460 OA
BRANCH   6   7
ATOM      7  C   UNL     1       1.886   0.680  -0.711  1.00  0.00     0.374 C 
ATOM      8  O   UNL     1       2.046   1.138   0.411  1.00  0.00    -0.242 OA
BRANCH   7   9
ATOM      9  C   UNL     1       0.553   0.253  -1.226  1.00  0.00     0.216 C 
ATOM     10  C   UNL     1       0.401  -0.251  -2.455  1.00  0.00     0.108 C 
ATOM     11  O   UNL     1      -0.510   0.411  -0.353  1.00  0.00    -0.448 OA
ATOM     12  C   UNL     1      -0.943  -0.656  -2.909  1.00  0.00     0.199 C 
ATOM     13  C   UNL     1      -1.781   0.039  -0.751  1.00  0.00     0.153 C 
ATOM     14  O   UNL     1      -1.060  -1.115  -4.038  1.00  0.00    -0.289 OA
ATOM     15  C   UNL     1      -2.066  -0.479  -1.958  1.00  0.00     0.130 C 
ATOM     16  C   UNL     1      -2.835   0.251   0.258  1.00  0.00     0.042 A 
ATOM     17  C   UNL     1      -3.465  -0.847  -2.291  1.00  0.00     0.263 C 
ATOM     18  C   UNL     1      -4.158  -0.096  -0.056  1.00  0.00     0.055 A 
ATOM     19  C   UNL     1      -2.560   0.788   1.518  1.00  0.00     0.014 A 
ATOM     20  N   UNL     1      -4.414  -0.633  -1.326  1.00  0.00    -0.321 N 
ATOM     21  O   UNL     1      -3.803  -1.323  -3.369  1.00  0.00    -0.269 OA
ATOM     22  C   UNL     1      -5.211   0.084   0.871  1.00  0.00    -0.024 A 
ATOM     23  C   UNL     1      -3.585   0.974   2.446  1.00  0.00     0.004 A 
ATOM     24  C   UNL     1      -4.911   0.629   2.140  1.00  0.00    -0.046 A 
ATOM     25  H   UNL     1      -5.351  -0.899  -1.596  1.00  0.00     0.170 HD
ATOM     26  C   UNL     1      -6.621  -0.302   0.497  1.00  0.00     0.047 C 
ATOM     27  C   UNL     1      -5.967   0.856   3.189  1.00  0.00     0.044 C 
ENDBRANCH   7   9
ENDBRANCH   6   7
ENDBRANCH   1   6
TORSDOF 5
