REMARK SMILES C=C[C@]1(C)C[C@@H](OC(=O)CS[C@@H]2C[C@H]3CC[C@@H](C2)N3C)[C@]2(C)[C@H](C)CC[C@]3(CCC(=O)[C@H]32)[C@@H](C)[C@@H]1O
REMARK SMILES IDX 6 1 21 2 23 3 25 4 26 5 32 6 27 7 30 8 28 9 29 10 31 11
REMARK SMILES IDX 24 12 22 13 33 14 34 15 35 16 36 18 5 20 3 21 4 22 2 24 1 25
REMARK SMILES IDX 7 26 8 27 9 28 10 29 11 30 12 31 18 32 13 33 17 34 14 35
REMARK SMILES IDX 16 36 19 37 15 38 20 39
REMARK H PARENT 36 19
REMARK Flexibility Score:  178.900
ROOT
ATOM      1  C   UNL     1      -0.919  -1.041   0.167  1.00  0.00     0.184 C 
ENDROOT
BRANCH   1   2
ATOM      2  C   UNL     1      -2.006  -1.326   1.285  1.00  0.00     0.017 C 
ATOM      3  C   UNL     1      -2.651  -2.752   1.227  1.00  0.00    -0.004 C 
ATOM      4  C   UNL     1      -3.868  -2.924   0.299  1.00  0.00     0.004 C 
ATOM      5  C   UNL     1      -4.301  -1.714  -0.515  1.00  0.00     0.008 C 
ATOM      6  C   UNL     1      -3.121  -0.239   1.314  1.00  0.00     0.072 C 
ATOM      7  C   UNL     1      -4.233  -0.359   0.218  1.00  0.00    -0.014 C 
ATOM      8  C   UNL     1      -3.929  -0.079   2.607  1.00  0.00     0.137 C 
ATOM      9  C   UNL     1      -5.586  -0.319   1.013  1.00  0.00     0.016 C 
ATOM     10  C   UNL     1      -5.339   0.340   2.348  1.00  0.00     0.076 C 
ATOM     11  O   UNL     1      -3.480  -0.146   3.744  1.00  0.00    -0.299 OA
ATOM     12  C   UNL     1      -1.652  -3.898   0.995  1.00  0.00     0.008 C 
ATOM     13  C   UNL     1      -1.176  -1.250   2.616  1.00  0.00     0.016 C 
BRANCH   7  14
ATOM     14  C   UNL     1      -4.109   0.801  -0.858  1.00  0.00     0.022 C 
ATOM     15  C   UNL     1      -4.703   2.141  -0.336  1.00  0.00     0.011 C 
BRANCH  14  16
ATOM     16  C   UNL     1      -2.661   1.111  -1.411  1.00  0.00     0.127 CG0
ATOM     17  G   UNL     1      -1.799   0.024  -2.171  1.00  0.00     0.000 G0
BRANCH  16  18
ATOM     18  O   UNL     1      -2.788   2.235  -2.321  1.00  0.00    -0.392 OA
ATOM     19  H   UNL     1      -2.831   3.054  -1.793  1.00  0.00     0.211 HD
ENDBRANCH  16  18
ENDBRANCH  14  16
ENDBRANCH   7  14
ENDBRANCH   1   2
BRANCH   1  20
ATOM     20  C   UNL     1      -1.288  -1.188  -1.317  1.00  0.00     0.059 C 
BRANCH  20  21
ATOM     21  C   UNL     1      -1.799   0.024  -2.171  1.00  0.00     0.015 CG0
ATOM     22  C   UNL     1      -0.527   0.755  -2.724  1.00  0.00     0.019 C 
ATOM     23  G   UNL     1      -2.661   1.111  -1.411  1.00  0.00     0.000 G0
BRANCH  21  24
ATOM     24  C   UNL     1      -2.533  -0.416  -3.455  1.00  0.00    -0.025 C 
ATOM     25  C   UNL     1      -2.649  -1.638  -3.994  1.00  0.00     0.004 C 
ENDBRANCH  21  24
ENDBRANCH  20  21
ENDBRANCH   1  20
BRANCH   1  26
ATOM     26  O   UNL     1      -0.312   0.250   0.406  1.00  0.00    -0.461 OA
BRANCH  26  27
ATOM     27  C   UNL     1       1.055   0.299   0.465  1.00  0.00     0.316 C 
ATOM     28  O   UNL     1       1.795  -0.648   0.237  1.00  0.00    -0.251 OA
BRANCH  27  29
ATOM     29  C   UNL     1       1.502   1.711   0.797  1.00  0.00     0.192 C 
BRANCH  29  30
ATOM     30  S   UNL     1       2.829   1.736   2.044  1.00  0.00    -0.147 SA
BRANCH  30  31
ATOM     31  C   UNL     1       4.266   1.245   1.009  1.00  0.00     0.050 C 
ATOM     32  C   UNL     1       4.856   2.450   0.254  1.00  0.00     0.033 C 
ATOM     33  C   UNL     1       5.321   0.550   1.887  1.00  0.00     0.033 C 
ATOM     34  C   UNL     1       6.260   2.140  -0.312  1.00  0.00     0.057 C 
ATOM     35  C   UNL     1       6.670   0.408   1.154  1.00  0.00     0.057 C 
ATOM     36  C   UNL     1       6.262   0.883  -1.190  1.00  0.00     0.021 C 
ATOM     37  N   UNL     1       7.107   1.782   0.841  1.00  0.00    -0.300 NA
ATOM     38  C   UNL     1       6.524  -0.269  -0.214  1.00  0.00     0.021 C 
ATOM     39  C   UNL     1       8.534   1.869   0.540  1.00  0.00     0.105 C 
ENDBRANCH  30  31
ENDBRANCH  29  30
ENDBRANCH  27  29
ENDBRANCH  26  27
ENDBRANCH   1  26
TORSDOF 7
