REMARK SMILES CCCCCC[C@@H](O)C/C=C\CCCCCCCC(=O)O
REMARK SMILES IDX 12 1 11 2 10 3 9 4 7 5 6 6 5 7 4 8 3 9 2 10 1 11 8 12 13 14
REMARK SMILES IDX 14 15 15 16 16 17 17 18 18 19 19 20 20 21 21 22
REMARK H PARENT 8 13 21 23
ROOT
ATOM      1  C   UNL     1       1.345   2.572  -0.259  1.00  0.00     0.027 C 
ENDROOT
BRANCH   1   2
ATOM      2  C   UNL     1       0.590   2.321   1.016  1.00  0.00    -0.031 C 
ATOM      3  C   UNL     1      -0.687   1.928   1.148  1.00  0.00    -0.029 C 
BRANCH   3   4
ATOM      4  C   UNL     1      -1.674   1.638   0.051  1.00  0.00     0.058 C 
BRANCH   4   5
ATOM      5  C   UNL     1      -1.910   0.136  -0.184  1.00  0.00     0.118 C 
BRANCH   5   6
ATOM      6  C   UNL     1      -2.486  -0.640   1.011  1.00  0.00     0.032 C 
BRANCH   6   7
ATOM      7  C   UNL     1      -3.747  -0.067   1.676  1.00  0.00     0.003 C 
BRANCH   7   8
ATOM      8  C   UNL     1      -4.993   0.072   0.796  1.00  0.00     0.000 C 
BRANCH   8   9
ATOM      9  C   UNL     1      -5.511  -1.265   0.258  1.00  0.00    -0.000 C 
BRANCH   9  10
ATOM     10  C   UNL     1      -6.741  -1.118  -0.642  1.00  0.00    -0.003 C 
ATOM     11  C   UNL     1      -7.975  -0.613   0.089  1.00  0.00     0.004 C 
ENDBRANCH   9  10
ENDBRANCH   8   9
ENDBRANCH   7   8
ENDBRANCH   6   7
ENDBRANCH   5   6
BRANCH   5  12
ATOM     12  O   UNL     1      -2.768  -0.040  -1.313  1.00  0.00    -0.393 OA
ATOM     13  H   UNL     1      -2.329   0.365  -2.080  1.00  0.00     0.210 HD
ENDBRANCH   5  12
ENDBRANCH   4   5
ENDBRANCH   3   4
ENDBRANCH   1   2
BRANCH   1  14
ATOM     14  C   UNL     1       2.275   1.417  -0.650  1.00  0.00     0.004 C 
BRANCH  14  15
ATOM     15  C   UNL     1       3.438   1.216   0.327  1.00  0.00     0.000 C 
BRANCH  15  16
ATOM     16  C   UNL     1       4.346   0.037  -0.040  1.00  0.00     0.000 C 
BRANCH  16  17
ATOM     17  C   UNL     1       5.175   0.277  -1.303  1.00  0.00     0.001 C 
BRANCH  17  18
ATOM     18  C   UNL     1       6.031  -0.925  -1.726  1.00  0.00     0.012 C 
BRANCH  18  19
ATOM     19  C   UNL     1       7.185  -1.250  -0.779  1.00  0.00     0.122 C 
BRANCH  19  20
ATOM     20  C   UNL     1       6.799  -2.103   0.397  1.00  0.00     0.303 C 
ATOM     21  O   UNL     1       7.044  -1.861   1.568  1.00  0.00    -0.252 OA
BRANCH  20  22
ATOM     22  O   UNL     1       6.178  -3.245   0.051  1.00  0.00    -0.481 OA
ATOM     23  H   UNL     1       6.021  -3.698   0.905  1.00  0.00     0.296 HD
ENDBRANCH  20  22
ENDBRANCH  19  20
ENDBRANCH  18  19
ENDBRANCH  17  18
ENDBRANCH  16  17
ENDBRANCH  15  16
ENDBRANCH  14  15
ENDBRANCH   1  14
TORSDOF 17
