REMARK SMILES Nc1nc2ccc(OC(F)(F)F)cc2s1
REMARK SMILES IDX 2 1 3 2 4 3 14 4 15 5 13 6 7 7 6 8 5 9 1 10 8 13 9 14 10 15
REMARK SMILES IDX 11 16 12 17
REMARK H PARENT 1 11 1 12
ROOT
ATOM      1  C   UNL     1       3.166   0.720  -0.063  1.00  0.00     0.181 A 
ATOM      2  N   UNL     1       2.557  -0.274  -0.656  1.00  0.00    -0.220 NA
ATOM      3  C   UNL     1       1.199  -0.218  -0.399  1.00  0.00     0.084 A 
ATOM      4  C   UNL     1       0.787   0.835   0.416  1.00  0.00     0.060 A 
ATOM      5  S   UNL     1       2.166   1.766   0.855  1.00  0.00    -0.097 S 
ATOM      6  C   UNL     1      -0.561   1.018   0.765  1.00  0.00     0.068 A 
ATOM      7  C   UNL     1      -1.517   0.115   0.279  1.00  0.00     0.131 A 
ATOM      8  C   UNL     1      -1.123  -0.943  -0.537  1.00  0.00     0.049 A 
ATOM      9  C   UNL     1       0.227  -1.117  -0.879  1.00  0.00     0.034 A 
ENDROOT
BRANCH   1  10
ATOM     10  N   UNL     1       4.494   0.914  -0.141  1.00  0.00    -0.375 N 
ATOM     11  H   UNL     1       4.934   1.426   0.614  1.00  0.00     0.159 HD
ATOM     12  H   UNL     1       5.024   0.107  -0.449  1.00  0.00     0.159 HD
ENDBRANCH   1  10
BRANCH   7  13
ATOM     13  O   UNL     1      -2.794   0.392   0.683  1.00  0.00    -0.406 OA
BRANCH  13  14
ATOM     14  C   UNL     1      -3.833  -0.466   0.242  1.00  0.00     0.573 C 
ATOM     15  F   UNL     1      -5.005  -0.023   0.747  1.00  0.00    -0.132 F 
ATOM     16  F   UNL     1      -3.928  -0.463  -1.105  1.00  0.00    -0.132 F 
ATOM     17  F   UNL     1      -3.639  -1.729   0.678  1.00  0.00    -0.132 F 
ENDBRANCH  13  14
ENDBRANCH   7  13
TORSDOF 3
