REMARK SMILES O=P(O)(O)C(O)(Cc1cccnc1)P(=O)(O)O
REMARK SMILES IDX 5 1 6 2 7 4 8 5 13 6 9 7 12 8 10 9 11 10 2 11 1 12 3 13 4 15
REMARK SMILES IDX 14 17 15 18 16 19 17 21
REMARK H PARENT 6 3 3 14 4 16 16 20 17 22
ROOT
ATOM      1  C   UNL     1      -0.958  -0.261   0.230  1.00  0.00     0.271 C 
ENDROOT
BRANCH   1   2
ATOM      2  O   UNL     1      -0.861  -0.573   1.649  1.00  0.00    -0.367 OA
ATOM      3  H   UNL     1      -0.260   0.093   2.046  1.00  0.00     0.213 HD
ENDBRANCH   1   2
BRANCH   1   4
ATOM      4  C   UNL     1       0.282  -0.790  -0.512  1.00  0.00     0.099 C 
BRANCH   4   5
ATOM      5  C   UNL     1       1.614  -0.359   0.038  1.00  0.00    -0.025 A 
ATOM      6  C   UNL     1       2.206  -1.040   1.100  1.00  0.00     0.114 A 
ATOM      7  C   UNL     1       2.306   0.733  -0.489  1.00  0.00     0.007 A 
ATOM      8  N   UNL     1       3.392  -0.703   1.652  1.00  0.00    -0.264 NA
ATOM      9  C   UNL     1       3.529   1.105   0.062  1.00  0.00     0.020 A 
ATOM     10  C   UNL     1       4.024   0.365   1.122  1.00  0.00     0.111 A 
ENDBRANCH   4   5
ENDBRANCH   1   4
BRANCH   1  11
ATOM     11  P   UNL     1      -2.410  -1.182  -0.406  1.00  0.00     0.369 P 
ATOM     12  O   UNL     1      -2.629  -1.269  -1.879  1.00  0.00    -0.256 OA
BRANCH  11  13
ATOM     13  O   UNL     1      -2.373  -2.642   0.261  1.00  0.00    -0.322 OA
ATOM     14  H   UNL     1      -2.994  -3.278  -0.136  1.00  0.00     0.221 HD
ENDBRANCH  11  13
BRANCH  11  15
ATOM     15  O   UNL     1      -3.689  -0.547   0.345  1.00  0.00    -0.322 OA
ATOM     16  H   UNL     1      -4.530  -0.908  -0.004  1.00  0.00     0.221 HD
ENDBRANCH  11  15
ENDBRANCH   1  11
BRANCH   1  17
ATOM     17  P   UNL     1      -1.160   1.549   0.126  1.00  0.00     0.369 P 
ATOM     18  O   UNL     1      -0.107   2.353   0.817  1.00  0.00    -0.256 OA
BRANCH  17  19
ATOM     19  O   UNL     1      -1.324   1.914  -1.423  1.00  0.00    -0.322 OA
ATOM     20  H   UNL     1      -1.364   2.882  -1.555  1.00  0.00     0.221 HD
ENDBRANCH  17  19
BRANCH  17  21
ATOM     21  O   UNL     1      -2.633   1.876   0.677  1.00  0.00    -0.322 OA
ATOM     22  H   UNL     1      -3.217   1.094   0.825  1.00  0.00     0.221 HD
ENDBRANCH  17  21
ENDBRANCH   1  17
TORSDOF 9
