REMARK SMILES O=C(NC[C@H]1CN(c2ccc(N3CCOCC3=O)cc2)C(=O)O1)c1ccc(Cl)s1
REMARK SMILES IDX 4 1 3 2 2 3 1 4 24 6 27 7 26 8 29 9 25 10 28 11 5 12 6 13
REMARK SMILES IDX 23 14 7 15 21 16 22 17 8 18 9 19 20 20 10 21 19 22 11 23
REMARK SMILES IDX 12 24 13 25 17 26 14 27 16 28 18 29 15 30
REMARK H PARENT 3 5
ROOT
ATOM      1  C   UNL     1       3.285  -1.082  -0.933  1.00  0.00     0.163 C 
ENDROOT
BRANCH   1   2
ATOM      2  N   UNL     1       4.676  -0.790  -0.620  1.00  0.00    -0.348 N 
ATOM      3  C   UNL     1       5.068  -0.429   0.661  1.00  0.00     0.261 C 
ATOM      4  O   UNL     1       4.272  -0.468   1.596  1.00  0.00    -0.268 OA
ATOM      5  H   UNL     1       5.320  -0.658  -1.384  1.00  0.00     0.163 HD
BRANCH   3   6
ATOM      6  C   UNL     1       6.464  -0.025   0.794  1.00  0.00     0.093 A 
ATOM      7  C   UNL     1       8.569   0.828   1.733  1.00  0.00     0.094 A 
ATOM      8  C   UNL     1       8.734   0.440   0.431  1.00  0.00     0.033 A 
ATOM      9  S   UNL     1       6.997   0.607   2.307  1.00  0.00    -0.118 S 
ATOM     10  C   UNL     1       7.511  -0.059  -0.116  1.00  0.00     0.027 A 
ATOM     11  Cl  UNL     1       9.775   1.481   2.766  1.00  0.00    -0.072 Cl
ENDBRANCH   3   6
ENDBRANCH   1   2
BRANCH   1  12
ATOM     12  C   UNL     1       2.598   0.087  -1.654  1.00  0.00     0.217 C 
ATOM     13  C   UNL     1       1.135  -0.186  -1.922  1.00  0.00     0.176 C 
ATOM     14  O   UNL     1       2.587   1.256  -0.827  1.00  0.00    -0.442 OA
ATOM     15  N   UNL     1       0.481   0.446  -0.818  1.00  0.00    -0.274 N 
ATOM     16  C   UNL     1       1.351   1.362  -0.238  1.00  0.00     0.414 C 
ATOM     17  O   UNL     1       1.122   2.195   0.623  1.00  0.00    -0.224 OA
BRANCH  15  18
ATOM     18  C   UNL     1      -0.891   0.259  -0.511  1.00  0.00     0.047 A 
ATOM     19  C   UNL     1      -1.712  -0.516  -1.336  1.00  0.00     0.028 A 
ATOM     20  C   UNL     1      -1.477   0.820   0.624  1.00  0.00     0.028 A 
ATOM     21  C   UNL     1      -3.070  -0.716  -1.038  1.00  0.00     0.028 A 
ATOM     22  C   UNL     1      -2.836   0.617   0.923  1.00  0.00     0.028 A 
ATOM     23  C   UNL     1      -3.662  -0.161   0.101  1.00  0.00     0.044 A 
BRANCH  23  24
ATOM     24  N   UNL     1      -5.056  -0.351   0.403  1.00  0.00    -0.308 N 
ATOM     25  C   UNL     1      -5.682   0.530   1.397  1.00  0.00     0.154 C 
ATOM     26  C   UNL     1      -5.775  -1.476  -0.044  1.00  0.00     0.253 C 
ATOM     27  C   UNL     1      -7.192   0.636   1.223  1.00  0.00     0.183 C 
ATOM     28  C   UNL     1      -7.276  -1.502   0.320  1.00  0.00     0.260 C 
ATOM     29  O   UNL     1      -5.315  -2.401  -0.716  1.00  0.00    -0.272 OA
ATOM     30  O   UNL     1      -7.760  -0.661   1.352  1.00  0.00    -0.370 OA
ENDBRANCH  23  24
ENDBRANCH  15  18
ENDBRANCH   1  12
TORSDOF 5
