REMARK SMILES CCCN(CCc1cccs1)[C@H]1CCc2c(O)cccc2C1
REMARK SMILES IDX 4 1 3 2 2 3 1 4 5 5 6 6 7 7 8 8 11 9 9 10 10 11 12 12 13 13
REMARK SMILES IDX 22 14 14 15 21 16 15 17 20 18 16 19 19 20 18 21 17 22
REMARK H PARENT 17 23
ROOT
ATOM      1  N   UNL     1       0.555  -0.754  -0.869  1.00  0.00    -0.300 NA
ENDROOT
BRANCH   1   2
ATOM      2  C   UNL     1       0.758  -1.989  -0.103  1.00  0.00     0.084 C 
BRANCH   2   3
ATOM      3  C   UNL     1       1.930  -2.841  -0.609  1.00  0.00     0.012 C 
ATOM      4  C   UNL     1       1.995  -4.178   0.116  1.00  0.00     0.005 C 
ENDBRANCH   2   3
ENDBRANCH   1   2
BRANCH   1   5
ATOM      5  C   UNL     1       1.708   0.164  -0.906  1.00  0.00     0.090 C 
BRANCH   5   6
ATOM      6  C   UNL     1       2.166   0.763   0.434  1.00  0.00     0.062 C 
BRANCH   6   7
ATOM      7  C   UNL     1       3.406   1.596   0.267  1.00  0.00     0.006 A 
ATOM      8  C   UNL     1       4.724   1.188   0.342  1.00  0.00     0.015 A 
ATOM      9  S   UNL     1       3.284   3.275  -0.055  1.00  0.00    -0.149 S 
ATOM     10  C   UNL     1       5.635   2.262   0.128  1.00  0.00     0.012 A 
ATOM     11  C   UNL     1       4.984   3.453  -0.100  1.00  0.00     0.065 A 
ENDBRANCH   6   7
ENDBRANCH   5   6
ENDBRANCH   1   5
BRANCH   1  12
ATOM     12  C   UNL     1      -0.735  -0.067  -0.632  1.00  0.00     0.061 C 
ATOM     13  C   UNL     1      -1.807  -0.701  -1.532  1.00  0.00     0.024 C 
ATOM     14  C   UNL     1      -1.269  -0.064   0.818  1.00  0.00     0.055 C 
ATOM     15  C   UNL     1      -3.080   0.147  -1.532  1.00  0.00     0.041 C 
ATOM     16  C   UNL     1      -2.649   0.547   0.936  1.00  0.00    -0.040 A 
ATOM     17  C   UNL     1      -3.524   0.621  -0.168  1.00  0.00    -0.003 A 
ATOM     18  C   UNL     1      -3.077   0.989   2.200  1.00  0.00     0.004 A 
ATOM     19  C   UNL     1      -4.794   1.189   0.026  1.00  0.00     0.119 A 
ATOM     20  C   UNL     1      -4.349   1.529   2.371  1.00  0.00     0.004 A 
ATOM     21  C   UNL     1      -5.206   1.631   1.281  1.00  0.00     0.046 A 
BRANCH  19  22
ATOM     22  O   UNL     1      -5.701   1.351  -0.983  1.00  0.00    -0.508 OA
ATOM     23  H   UNL     1      -5.281   1.147  -1.832  1.00  0.00     0.293 HD
ENDBRANCH  19  22
ENDBRANCH   1  12
TORSDOF 7
