REMARK SMILES NC(=O)c1ccccc1OCC(=O)O
REMARK SMILES IDX 10 1 9 2 4 3 5 4 8 5 6 6 7 7 2 8 1 9 3 10 11 13 12 14 13 15
REMARK SMILES IDX 14 16
REMARK H PARENT 1 11 1 12 14 17
ROOT
ATOM      1  O   UNL     1       0.772   0.775  -0.651  1.00  0.00    -0.481 OA
ENDROOT
BRANCH   1   2
ATOM      2  C   UNL     1      -0.221  -0.106  -0.306  1.00  0.00     0.132 A 
ATOM      3  C   UNL     1      -1.430   0.430   0.190  1.00  0.00     0.081 A 
ATOM      4  C   UNL     1      -2.487  -0.436   0.527  1.00  0.00     0.018 A 
ATOM      5  C   UNL     1      -0.103  -1.500  -0.432  1.00  0.00     0.047 A 
ATOM      6  C   UNL     1      -2.353  -1.815   0.392  1.00  0.00     0.001 A 
ATOM      7  C   UNL     1      -1.161  -2.345  -0.084  1.00  0.00     0.004 A 
BRANCH   3   8
ATOM      8  C   UNL     1      -1.695   1.890   0.395  1.00  0.00     0.252 C 
ATOM      9  N   UNL     1      -0.640   2.752   0.359  1.00  0.00    -0.365 N 
ATOM     10  O   UNL     1      -2.825   2.315   0.612  1.00  0.00    -0.269 OA
ATOM     11  H   UNL     1       0.293   2.436   0.126  1.00  0.00     0.159 HD
ATOM     12  H   UNL     1      -0.822   3.740   0.462  1.00  0.00     0.159 HD
ENDBRANCH   3   8
ENDBRANCH   1   2
BRANCH   1  13
ATOM     13  C   UNL     1       2.012   0.274  -1.130  1.00  0.00     0.351 C 
BRANCH  13  14
ATOM     14  C   UNL     1       2.923  -0.299  -0.059  1.00  0.00     0.341 C 
ATOM     15  O   UNL     1       3.565  -1.335  -0.144  1.00  0.00    -0.248 OA
BRANCH  14  16
ATOM     16  O   UNL     1       3.005   0.473   1.044  1.00  0.00    -0.479 OA
ATOM     17  H   UNL     1       3.604  -0.015   1.646  1.00  0.00     0.296 HD
ENDBRANCH  14  16
ENDBRANCH  13  14
ENDBRANCH   1  13
TORSDOF 5
