REMARK SMILES O=C(N/N=C/c1ccccc1O)c1ccncc1
REMARK SMILES IDX 11 1 6 2 7 3 8 4 9 5 10 6 12 7 5 9 4 10 3 11 2 12 1 13 13 15
REMARK SMILES IDX 14 16 18 17 15 18 17 19 16 20
REMARK H PARENT 12 8 3 14
ROOT
ATOM      1  C   UNL     1       3.279  -0.577   1.033  1.00  0.00     0.124 A 
ATOM      2  C   UNL     1       2.631   0.077  -0.022  1.00  0.00     0.036 A 
ATOM      3  C   UNL     1       3.382   0.582  -1.089  1.00  0.00     0.013 A 
ATOM      4  C   UNL     1       4.771   0.436  -1.095  1.00  0.00     0.001 A 
ATOM      5  C   UNL     1       5.411  -0.214  -0.038  1.00  0.00     0.004 A 
ATOM      6  C   UNL     1       4.664  -0.721   1.026  1.00  0.00     0.047 A 
ENDROOT
BRANCH   1   7
ATOM      7  O   UNL     1       2.615  -1.102   2.108  1.00  0.00    -0.507 OA
ATOM      8  H   UNL     1       1.657  -0.946   1.955  1.00  0.00     0.293 HD
ENDBRANCH   1   7
BRANCH   2   9
ATOM      9  C   UNL     1       1.165   0.261  -0.058  1.00  0.00     0.145 C 
ATOM     10  N   UNL     1       0.407  -0.181   0.900  1.00  0.00    -0.180 NA
BRANCH  10  11
ATOM     11  N   UNL     1      -0.949  -0.012   0.771  1.00  0.00    -0.243 N 
ATOM     12  C   UNL     1      -1.655  -0.128  -0.424  1.00  0.00     0.271 C 
ATOM     13  O   UNL     1      -1.168  -0.317  -1.534  1.00  0.00    -0.267 OA
ATOM     14  H   UNL     1      -1.456  -0.197   1.632  1.00  0.00     0.194 HD
BRANCH  12  15
ATOM     15  C   UNL     1      -3.135  -0.052  -0.293  1.00  0.00     0.044 A 
ATOM     16  C   UNL     1      -3.751   0.708   0.703  1.00  0.00     0.034 A 
ATOM     17  C   UNL     1      -3.919  -0.740  -1.221  1.00  0.00     0.034 A 
ATOM     18  C   UNL     1      -5.134   0.724   0.739  1.00  0.00     0.112 A 
ATOM     19  C   UNL     1      -5.293  -0.661  -1.096  1.00  0.00     0.112 A 
ATOM     20  N   UNL     1      -5.915   0.050  -0.131  1.00  0.00    -0.265 NA
ENDBRANCH  12  15
ENDBRANCH  10  11
ENDBRANCH   2   9
TORSDOF 4
