REMARK SMILES O=C(O)c1ccccc1O
REMARK SMILES IDX 4 1 5 2 6 3 7 4 8 5 9 6 2 7 1 8 3 9 10 11
REMARK H PARENT 3 10 10 12
ROOT
ATOM      1  C   UNL     1       0.503  -0.207  -0.142  1.00  0.00     0.101 A 
ATOM      2  C   UNL     1      -0.147  -1.420   0.129  1.00  0.00     0.019 A 
ATOM      3  C   UNL     1      -1.482  -1.432   0.540  1.00  0.00     0.001 A 
ATOM      4  C   UNL     1      -2.177  -0.232   0.682  1.00  0.00     0.004 A 
ATOM      5  C   UNL     1      -1.539   0.979   0.415  1.00  0.00     0.047 A 
ATOM      6  C   UNL     1      -0.206   0.993   0.005  1.00  0.00     0.130 A 
ENDROOT
BRANCH   1   7
ATOM      7  C   UNL     1       1.921  -0.281  -0.573  1.00  0.00     0.339 C 
ATOM      8  O   UNL     1       2.577  -1.296  -0.715  1.00  0.00    -0.246 OA
BRANCH   7   9
ATOM      9  O   UNL     1       2.465   0.930  -0.812  1.00  0.00    -0.478 OA
ATOM     10  H   UNL     1       3.384   0.706  -1.081  1.00  0.00     0.297 HD
ENDBRANCH   7   9
ENDBRANCH   1   7
BRANCH   6  11
ATOM     11  O   UNL     1       0.331   2.229  -0.234  1.00  0.00    -0.507 OA
ATOM     12  H   UNL     1       1.262   2.095  -0.512  1.00  0.00     0.293 HD
ENDBRANCH   6  11
TORSDOF 3
