REMARK SMILES CCCC[N+]1(C)[C@@H]2C[C@@H](OC(=O)[C@H](CO)c3ccccc3)C[C@H]1[C@@H]1O[C@@H]12
REMARK SMILES IDX 10 1 9 2 5 3 23 4 7 5 22 6 24 7 8 8 26 9 25 10 6 11 4 12
REMARK SMILES IDX 3 13 2 14 1 15 11 16 12 17 13 18 14 19 15 20 16 22 17 23
REMARK SMILES IDX 21 24 18 25 20 26 19 27
REMARK H PARENT 15 21
ROOT
ATOM      1  O   UNL     1      -1.718   0.784  -1.049  1.00  0.00    -0.461 OA
ENDROOT
BRANCH   1   2
ATOM      2  C   UNL     1      -0.534   0.834  -1.878  1.00  0.00     0.188 C 
ATOM      3  N   UNL     1       2.127  -0.129  -0.945  1.00  0.00    -0.316 N 
ATOM      4  C   UNL     1       1.414   1.048  -0.195  1.00  0.00     0.221 C 
ATOM      5  C   UNL     1       0.894  -1.104  -0.958  1.00  0.00     0.221 C 
ATOM      6  C   UNL     1       0.494   1.774  -1.205  1.00  0.00     0.113 C 
ATOM      7  C   UNL     1       0.536   0.427   0.876  1.00  0.00     0.212 C 
ATOM      8  C   UNL     1      -0.075  -0.632  -2.060  1.00  0.00     0.113 C 
ATOM      9  C   UNL     1       0.203  -0.948   0.394  1.00  0.00     0.212 C 
ATOM     10  O   UNL     1       1.016  -0.732   1.557  1.00  0.00    -0.357 OA
ATOM     11  C   UNL     1       2.730   0.209  -2.304  1.00  0.00     0.335 C 
BRANCH   3  12
ATOM     12  C   UNL     1       3.284  -0.808  -0.127  1.00  0.00     0.264 C 
BRANCH  12  13
ATOM     13  C   UNL     1       4.222   0.199   0.538  1.00  0.00     0.061 C 
BRANCH  13  14
ATOM     14  C   UNL     1       5.494  -0.455   1.088  1.00  0.00     0.002 C 
ATOM     15  C   UNL     1       5.229  -1.442   2.215  1.00  0.00     0.004 C 
ENDBRANCH  13  14
ENDBRANCH  12  13
ENDBRANCH   3  12
ENDBRANCH   1   2
BRANCH   1  16
ATOM     16  C   UNL     1      -2.672   1.738  -1.248  1.00  0.00     0.316 C 
ATOM     17  O   UNL     1      -2.544   2.658  -2.046  1.00  0.00    -0.251 OA
BRANCH  16  18
ATOM     18  C   UNL     1      -3.880   1.564  -0.334  1.00  0.00     0.155 C 
BRANCH  18  19
ATOM     19  C   UNL     1      -3.933   2.810   0.564  1.00  0.00     0.176 C 
BRANCH  19  20
ATOM     20  O   UNL     1      -5.061   2.810   1.432  1.00  0.00    -0.395 OA
ATOM     21  H   UNL     1      -5.870   2.781   0.890  1.00  0.00     0.210 HD
ENDBRANCH  19  20
ENDBRANCH  18  19
BRANCH  18  22
ATOM     22  C   UNL     1      -3.901   0.214   0.383  1.00  0.00    -0.032 A 
ATOM     23  C   UNL     1      -4.310  -0.927  -0.333  1.00  0.00     0.005 A 
ATOM     24  C   UNL     1      -3.492   0.050   1.716  1.00  0.00     0.005 A 
ATOM     25  C   UNL     1      -4.307  -2.188   0.264  1.00  0.00     0.000 A 
ATOM     26  C   UNL     1      -3.492  -1.214   2.312  1.00  0.00     0.000 A 
ATOM     27  C   UNL     1      -3.897  -2.332   1.586  1.00  0.00     0.000 A 
ENDBRANCH  18  22
ENDBRANCH  16  18
ENDBRANCH   1  16
TORSDOF 9
