REMARK SMILES O=C1NCCN1CCN1CCC(c2cn(-c3ccc(F)cc3)c3ccc(Cl)cc23)CC1
REMARK SMILES IDX 12 1 11 2 10 3 9 4 31 5 30 6 13 7 15 8 14 9 23 10 29 11
REMARK SMILES IDX 24 12 28 13 25 14 26 15 27 16 16 17 19 18 18 19 21 20 17 21
REMARK SMILES IDX 22 22 20 23 8 24 7 25 6 26 5 27 2 28 4 29 3 30 1 31
REMARK H PARENT 3 32
ROOT
ATOM      1  C   UNL     1      -0.171  -0.697  -1.037  1.00  0.00     0.024 C 
ATOM      2  C   UNL     1       0.753  -0.850   0.186  1.00  0.00     0.024 C 
ATOM      3  C   UNL     1       1.241   0.498   0.713  1.00  0.00     0.085 C 
ATOM      4  N   UNL     1       1.919   1.315  -0.294  1.00  0.00    -0.302 NA
ATOM      5  C   UNL     1       1.586   0.994  -1.684  1.00  0.00     0.085 C 
ATOM      6  C   UNL     1       0.119   0.595  -1.822  1.00  0.00     0.024 C 
ENDROOT
BRANCH   1   7
ATOM      7  C   UNL     1      -1.631  -0.828  -0.672  1.00  0.00    -0.019 A 
ATOM      8  N   UNL     1      -3.688  -0.374   0.159  1.00  0.00    -0.316 N 
ATOM      9  C   UNL     1      -2.376   0.054   0.084  1.00  0.00     0.096 A 
ATOM     10  C   UNL     1      -3.767  -1.628  -0.453  1.00  0.00     0.053 A 
ATOM     11  C   UNL     1      -2.509  -1.902  -1.012  1.00  0.00     0.005 A 
ATOM     12  C   UNL     1      -4.809  -2.577  -0.526  1.00  0.00     0.029 A 
ATOM     13  C   UNL     1      -2.326  -3.106  -1.730  1.00  0.00     0.031 A 
ATOM     14  C   UNL     1      -4.599  -3.764  -1.234  1.00  0.00     0.023 A 
ATOM     15  C   UNL     1      -3.377  -4.016  -1.837  1.00  0.00     0.041 A 
ATOM     16  Cl  UNL     1      -3.142  -5.486  -2.705  1.00  0.00    -0.084 Cl
BRANCH   8  17
ATOM     17  C   UNL     1      -4.743   0.382   0.760  1.00  0.00     0.046 A 
ATOM     18  C   UNL     1      -6.781   1.894   1.925  1.00  0.00     0.123 A 
ATOM     19  C   UNL     1      -7.080   1.029   0.880  1.00  0.00     0.041 A 
ATOM     20  C   UNL     1      -5.480   2.028   2.390  1.00  0.00     0.041 A 
ATOM     21  C   UNL     1      -6.060   0.274   0.292  1.00  0.00     0.029 A 
ATOM     22  C   UNL     1      -4.456   1.278   1.805  1.00  0.00     0.029 A 
ATOM     23  F   UNL     1      -7.760   2.616   2.485  1.00  0.00    -0.207 F 
ENDBRANCH   8  17
ENDBRANCH   1   7
BRANCH   4  24
ATOM     24  C   UNL     1       3.363   1.487  -0.076  1.00  0.00     0.106 C 
BRANCH  24  25
ATOM     25  C   UNL     1       4.225   0.207  -0.086  1.00  0.00     0.137 C 
BRANCH  25  26
ATOM     26  N   UNL     1       5.636   0.479   0.126  1.00  0.00    -0.322 N 
ATOM     27  C   UNL     1       6.198   0.769   1.427  1.00  0.00     0.142 C 
ATOM     28  C   UNL     1       6.472   0.957  -0.881  1.00  0.00     0.317 C 
ATOM     29  C   UNL     1       7.667   1.026   1.112  1.00  0.00     0.139 C 
ATOM     30  N   UNL     1       7.648   1.380  -0.280  1.00  0.00    -0.336 N 
ATOM     31  O   UNL     1       6.237   1.012  -2.074  1.00  0.00    -0.249 OA
ATOM     32  H   UNL     1       8.451   1.593  -0.857  1.00  0.00     0.165 HD
ENDBRANCH  25  26
ENDBRANCH  24  25
ENDBRANCH   4  24
TORSDOF 5
