REMARK SMILES N[C@@H]1CN(c2c(F)cc3c(=O)c(C(=O)O)cn([C@@H]4C[C@@H]4F)c3c2Cl)CC12CC2
REMARK SMILES IDX 5 1 6 2 7 3 8 4 9 5 10 6 11 7 12 8 16 9 17 10 22 11 23 12
REMARK SMILES IDX 24 13 4 14 2 15 3 16 26 17 25 18 27 19 28 20 1 21 18 24
REMARK SMILES IDX 19 25 20 26 21 27 13 28 14 29 15 30
REMARK H PARENT 1 22 1 23 15 31
ROOT
ATOM      1  C   UNL     1      -0.608   1.233   0.367  1.00  0.00     0.094 A 
ATOM      2  C   UNL     1       0.023   2.462   0.629  1.00  0.00     0.148 A 
ATOM      3  F   UNL     1      -0.708   3.516   1.026  1.00  0.00    -0.205 F 
ATOM      4  C   UNL     1       1.385   2.645   0.464  1.00  0.00     0.056 A 
ATOM      5  C   UNL     1       2.180   1.570   0.063  1.00  0.00     0.051 A 
ATOM      6  C   UNL     1       3.628   1.832  -0.163  1.00  0.00     0.204 C 
ATOM      7  O   UNL     1       4.064   2.969  -0.020  1.00  0.00    -0.288 OA
ATOM      8  C   UNL     1       4.469   0.707  -0.615  1.00  0.00     0.124 C 
ATOM      9  C   UNL     1       3.871  -0.485  -0.743  1.00  0.00     0.106 C 
ATOM     10  N   UNL     1       2.541  -0.776  -0.487  1.00  0.00    -0.339 N 
ATOM     11  C   UNL     1       1.630   0.286  -0.168  1.00  0.00     0.074 A 
ATOM     12  C   UNL     1       0.213   0.160  -0.084  1.00  0.00     0.091 A 
ATOM     13  Cl  UNL     1      -0.584  -1.259  -0.727  1.00  0.00    -0.080 Cl
ENDROOT
BRANCH   1  14
ATOM     14  N   UNL     1      -1.994   1.187   0.542  1.00  0.00    -0.366 N 
ATOM     15  C   UNL     1      -4.221   0.892  -0.248  1.00  0.00     0.078 C 
ATOM     16  C   UNL     1      -2.811   1.381  -0.661  1.00  0.00     0.136 C 
ATOM     17  C   UNL     1      -3.913  -0.171   0.782  1.00  0.00     0.005 C 
ATOM     18  C   UNL     1      -2.586   0.178   1.427  1.00  0.00     0.125 C 
ATOM     19  C   UNL     1      -5.028  -0.750   1.631  1.00  0.00     0.011 C 
ATOM     20  C   UNL     1      -4.320  -1.631   0.643  1.00  0.00     0.011 C 
BRANCH  15  21
ATOM     21  N   UNL     1      -5.047   0.422  -1.357  1.00  0.00    -0.326 NA
ATOM     22  H   UNL     1      -5.185   1.184  -2.019  1.00  0.00     0.119 HD
ATOM     23  H   UNL     1      -4.542  -0.303  -1.865  1.00  0.00     0.119 HD
ENDBRANCH  15  21
ENDBRANCH   1  14
BRANCH  10  24
ATOM     24  C   UNL     1       2.230  -2.207  -0.244  1.00  0.00     0.124 C 
ATOM     25  C   UNL     1       1.737  -2.700   1.101  1.00  0.00     0.068 C 
ATOM     26  C   UNL     1       3.082  -3.108   0.618  1.00  0.00     0.191 C 
ATOM     27  F   UNL     1       4.172  -2.566   1.277  1.00  0.00    -0.245 F 
ENDBRANCH  10  24
BRANCH   8  28
ATOM     28  C   UNL     1       5.907   0.776  -0.899  1.00  0.00     0.341 C 
ATOM     29  O   UNL     1       6.516   0.032  -1.652  1.00  0.00    -0.246 OA
BRANCH  28  30
ATOM     30  O   UNL     1       6.550   1.722  -0.201  1.00  0.00    -0.477 OA
ATOM     31  H   UNL     1       7.483   1.662  -0.488  1.00  0.00     0.297 HD
ENDBRANCH  28  30
ENDBRANCH   8  28
TORSDOF 5
