REMARK SMILES O=C(O)CC1(CO)CCCCC1
REMARK SMILES IDX 5 1 8 2 9 3 10 4 11 5 12 6 6 7 7 8 4 10 2 11 1 12 3 13
REMARK H PARENT 7 9 3 14
ROOT
ATOM      1  C   UNL     1      -0.577  -0.423   0.212  1.00  0.00     0.004 C 
ATOM      2  C   UNL     1      -0.364  -0.177  -1.310  1.00  0.00     0.010 C 
ATOM      3  C   UNL     1       1.062  -0.460  -1.777  1.00  0.00     0.001 C 
ATOM      4  C   UNL     1       2.091   0.408  -1.056  1.00  0.00     0.000 C 
ATOM      5  C   UNL     1       1.663   0.836   0.347  1.00  0.00     0.001 C 
ATOM      6  C   UNL     1       0.740  -0.186   1.005  1.00  0.00     0.010 C 
ENDROOT
BRANCH   1   7
ATOM      7  C   UNL     1      -1.047  -1.888   0.450  1.00  0.00     0.163 C 
BRANCH   7   8
ATOM      8  O   UNL     1      -0.112  -2.836  -0.043  1.00  0.00    -0.396 OA
ATOM      9  H   UNL     1      -0.474  -3.720   0.138  1.00  0.00     0.210 HD
ENDBRANCH   7   8
ENDBRANCH   1   7
BRANCH   1  10
ATOM     10  C   UNL     1      -1.736   0.465   0.743  1.00  0.00     0.132 C 
BRANCH  10  11
ATOM     11  C   UNL     1      -1.482   1.949   0.753  1.00  0.00     0.303 C 
ATOM     12  O   UNL     1      -1.640   2.719  -0.178  1.00  0.00    -0.252 OA
BRANCH  11  13
ATOM     13  O   UNL     1      -1.041   2.395   1.944  1.00  0.00    -0.481 OA
ATOM     14  H   UNL     1      -0.911   3.357   1.804  1.00  0.00     0.296 HD
ENDBRANCH  11  13
ENDBRANCH  10  11
ENDBRANCH   1  10
TORSDOF 5
