REMARK SMILES OC[C@@H](O)[C@@H](O)[C@H](O)[C@@H](O)CO
REMARK SMILES IDX 7 1 9 2 11 3 12 4 10 6 8 8 5 10 6 11 3 13 4 14 2 16 1 17
REMARK H PARENT 12 5 10 7 8 9 6 12 4 15 1 18
ROOT
ATOM      1  C   UNL     1       0.910  -0.621  -0.664  1.00  0.00     0.176 C 
ENDROOT
BRANCH   1   2
ATOM      2  C   UNL     1       1.489   0.288   0.436  1.00  0.00     0.171 C 
BRANCH   2   3
ATOM      3  C   UNL     1       2.955  -0.053   0.733  1.00  0.00     0.190 C 
BRANCH   3   4
ATOM      4  O   UNL     1       3.423   0.829   1.761  1.00  0.00    -0.394 OA
ATOM      5  H   UNL     1       3.634   1.679   1.334  1.00  0.00     0.210 HD
ENDBRANCH   3   4
ENDBRANCH   2   3
BRANCH   2   6
ATOM      6  O   UNL     1       0.753   0.145   1.672  1.00  0.00    -0.388 OA
ATOM      7  H   UNL     1       1.380   0.450   2.365  1.00  0.00     0.211 HD
ENDBRANCH   2   6
ENDBRANCH   1   2
BRANCH   1   8
ATOM      8  O   UNL     1       0.887  -1.984  -0.217  1.00  0.00    -0.388 OA
ATOM      9  H   UNL     1       0.152  -2.053   0.426  1.00  0.00     0.211 HD
ENDBRANCH   1   8
BRANCH   1  10
ATOM     10  C   UNL     1      -0.486  -0.196  -1.171  1.00  0.00     0.176 C 
BRANCH  10  11
ATOM     11  O   UNL     1      -0.352   1.004  -1.948  1.00  0.00    -0.388 OA
ATOM     12  H   UNL     1      -1.268   1.265  -2.193  1.00  0.00     0.211 HD
ENDBRANCH  10  11
BRANCH  10  13
ATOM     13  C   UNL     1      -1.565   0.007  -0.079  1.00  0.00     0.171 C 
BRANCH  13  14
ATOM     14  O   UNL     1      -1.491  -0.990   0.941  1.00  0.00    -0.388 OA
ATOM     15  H   UNL     1      -0.813  -0.646   1.570  1.00  0.00     0.211 HD
ENDBRANCH  13  14
BRANCH  13  16
ATOM     16  C   UNL     1      -2.974  -0.007  -0.689  1.00  0.00     0.190 C 
BRANCH  16  17
ATOM     17  O   UNL     1      -3.089   0.970  -1.723  1.00  0.00    -0.394 OA
ATOM     18  H   UNL     1      -4.021   0.953  -2.011  1.00  0.00     0.210 HD
ENDBRANCH  16  17
ENDBRANCH  13  16
ENDBRANCH  10  13
ENDBRANCH   1  10
TORSDOF 11
