REMARK SMILES CCOc1ccc(Cc2cc([C@@H]3O[C@H](SC)[C@@H](O)[C@H](O)[C@H]3O)ccc2Cl)cc1
REMARK SMILES IDX 8 1 7 2 4 3 5 4 28 5 6 6 27 7 3 8 2 9 1 10 9 11 25 12 10 13
REMARK SMILES IDX 24 14 11 15 23 16 26 17 12 18 13 19 21 20 14 21 19 22 17 23
REMARK SMILES IDX 22 24 15 26 16 27 20 28 18 30
REMARK H PARENT 22 25 20 29 18 31
ROOT
ATOM      1  C   UNL     1       1.386  -0.424   2.873  1.00  0.00     0.072 C 
ENDROOT
BRANCH   1   2
ATOM      2  C   UNL     1       2.340  -0.019   1.771  1.00  0.00    -0.043 A 
ATOM      3  C   UNL     1       4.097   0.727  -0.305  1.00  0.00     0.119 A 
ATOM      4  C   UNL     1       3.125   1.618   0.146  1.00  0.00     0.047 A 
ATOM      5  C   UNL     1       4.191  -0.532   0.291  1.00  0.00     0.047 A 
ATOM      6  C   UNL     1       2.252   1.247   1.176  1.00  0.00     0.008 A 
ATOM      7  C   UNL     1       3.323  -0.906   1.319  1.00  0.00     0.008 A 
BRANCH   3   8
ATOM      8  O   UNL     1       5.012   0.954  -1.295  1.00  0.00    -0.494 OA
BRANCH   8   9
ATOM      9  C   UNL     1       4.938   2.166  -2.042  1.00  0.00     0.226 C 
ATOM     10  C   UNL     1       5.749   3.262  -1.372  1.00  0.00     0.049 C 
ENDBRANCH   8   9
ENDBRANCH   3   8
ENDBRANCH   1   2
BRANCH   1  11
ATOM     11  C   UNL     1       0.360  -1.452   2.440  1.00  0.00    -0.025 A 
ATOM     12  C   UNL     1       0.355  -2.778   2.895  1.00  0.00     0.044 A 
ATOM     13  C   UNL     1      -0.632  -1.062   1.518  1.00  0.00     0.012 A 
ATOM     14  C   UNL     1      -0.616  -3.679   2.444  1.00  0.00     0.021 A 
ATOM     15  C   UNL     1      -1.606  -1.961   1.050  1.00  0.00    -0.016 A 
ATOM     16  C   UNL     1      -1.590  -3.275   1.529  1.00  0.00     0.008 A 
ATOM     17  Cl  UNL     1       1.522  -3.376   4.019  1.00  0.00    -0.084 Cl
BRANCH  15  18
ATOM     18  C   UNL     1      -2.665  -1.517   0.055  1.00  0.00     0.181 C 
ATOM     19  O   UNL     1      -1.998  -0.788  -0.978  1.00  0.00    -0.354 OA
ATOM     20  C   UNL     1      -3.735  -0.642   0.738  1.00  0.00     0.179 C 
ATOM     21  C   UNL     1      -2.873  -0.347  -2.018  1.00  0.00     0.207 C 
ATOM     22  C   UNL     1      -4.699  -0.107  -0.323  1.00  0.00     0.178 C 
ATOM     23  C   UNL     1      -3.955   0.600  -1.460  1.00  0.00     0.185 C 
BRANCH  20  24
ATOM     24  O   UNL     1      -4.512  -1.373   1.698  1.00  0.00    -0.387 OA
ATOM     25  H   UNL     1      -3.904  -1.645   2.411  1.00  0.00     0.211 HD
ENDBRANCH  20  24
BRANCH  21  26
ATOM     26  S   UNL     1      -1.888   0.420  -3.364  1.00  0.00    -0.131 SA
ATOM     27  C   UNL     1      -0.813   1.500  -2.391  1.00  0.00     0.088 C 
ENDBRANCH  21  26
BRANCH  22  28
ATOM     28  O   UNL     1      -5.622   0.818   0.279  1.00  0.00    -0.387 OA
ATOM     29  H   UNL     1      -5.983   0.347   1.058  1.00  0.00     0.211 HD
ENDBRANCH  22  28
BRANCH  23  30
ATOM     30  O   UNL     1      -4.921   0.974  -2.451  1.00  0.00    -0.387 OA
ATOM     31  H   UNL     1      -5.631   1.434  -1.960  1.00  0.00     0.211 HD
ENDBRANCH  23  30
ENDBRANCH  15  18
ENDBRANCH   1  11
TORSDOF 9
