REMARK SMILES CCC(=O)O[C@@H]1CC(=O)O[C@H](C)C/C=C/C=C/[C@H](O[C@H]2CC[C@H](N(C)C)[C@@H](C)O2)[C@H](C)C[C@H](CC=O)[C@H](O[C@@H]2O[C@H](C)[C@@H](O[C@H]3C[C@@](C)(O)[C@@H](O)[C@H](C)O3)[C@H](N(C)C)[C@H]2O)[C@H]1OC
REMARK SMILES IDX 37 1 61 2 6 3 5 4 3 5 4 6 2 7 1 8 7 9 8 10 9 11 10 12 11 13
REMARK SMILES IDX 12 14 62 16 63 17 33 18 32 19 30 20 31 21 18 22 17 23 16 24
REMARK SMILES IDX 15 25 14 26 13 27 19 29 20 30 21 31 29 32 22 33 27 34 23 35
REMARK SMILES IDX 28 36 24 37 25 38 26 39 34 40 35 41 36 42 38 43 39 44 40 45
REMARK SMILES IDX 59 46 41 47 55 48 43 49 42 50 60 51 56 53 57 54 58 55 44 56
REMARK SMILES IDX 45 57 46 58 54 59 47 60 52 61 50 62 48 63 53 64 49 65 51 67
REMARK H PARENT 60 52 49 66 51 68
REMARK Flexibility Score:  179.900
ROOT
ATOM      1  C   UNL     1      -0.239  -0.397   0.635  1.00  0.00     0.158 C 
ENDROOT
BRANCH   1   2
ATOM      2  C   UNL     1       0.440  -1.445   1.595  1.00  0.00     0.188 C 
BRANCH   2   3
ATOM      3  C   UNL     1       1.020  -2.705   0.878  1.00  0.00     0.219 C 
BRANCH   3   4
ATOM      4  O   UNL     1      -0.057  -3.521   0.341  1.00  0.00    -0.459 OA
BRANCH   4   5
ATOM      5  C   UNL     1      -0.284  -3.514  -0.997  1.00  0.00     0.305 C 
ATOM      6  O   UNL     1       0.210  -2.737  -1.799  1.00  0.00    -0.252 OA
BRANCH   5   7
ATOM      7  C   UNL     1      -1.285  -4.579  -1.366  1.00  0.00     0.119 C 
ATOM      8  C   UNL     1      -0.729  -5.968  -1.137  1.00  0.00     0.016 C 
ENDBRANCH   5   7
ENDBRANCH   4   5
ENDBRANCH   3   4
BRANCH   3   9
ATOM      9  C   UNL     1       1.731  -3.598   1.915  1.00  0.00     0.170 C 
BRANCH   9  10
ATOM     10  C   UNL     1       2.523  -4.710   1.274  1.00  0.00     0.309 C 
ATOM     11  O   UNL     1       2.355  -5.143   0.142  1.00  0.00    -0.252 OA
BRANCH  10  12
ATOM     12  O   UNL     1       3.444  -5.179   2.170  1.00  0.00    -0.462 OA
BRANCH  12  13
ATOM     13  C   UNL     1       4.378  -6.177   1.692  1.00  0.00     0.177 CG0
ATOM     14  C   UNL     1       4.635  -7.125   2.859  1.00  0.00     0.053 C 
ATOM     15  G   UNL     1       5.686  -5.486   1.261  1.00  0.00     0.000 G0
ENDBRANCH  12  13
ENDBRANCH  10  12
ENDBRANCH   9  10
ENDBRANCH   3   9
ENDBRANCH   2   3
BRANCH   2  16
ATOM     16  O   UNL     1      -0.518  -1.988   2.544  1.00  0.00    -0.375 OA
ATOM     17  C   UNL     1      -0.512  -1.352   3.810  1.00  0.00     0.195 C 
ENDBRANCH   2  16
ENDBRANCH   1   2
BRANCH   1  18
ATOM     18  C   UNL     1       0.619   0.841   0.187  1.00  0.00     0.028 C 
BRANCH  18  19
ATOM     19  C   UNL     1       2.102   0.591  -0.185  1.00  0.00     0.013 C 
BRANCH  19  20
ATOM     20  C   UNL     1       2.406  -0.090  -1.540  1.00  0.00     0.019 C 
ATOM     21  C   UNL     1       1.809   0.696  -2.714  1.00  0.00     0.011 C 
BRANCH  20  22
ATOM     22  C   UNL     1       3.941  -0.278  -1.773  1.00  0.00     0.147 C 
BRANCH  22  23
ATOM     23  C   UNL     1       4.535  -1.166  -0.715  1.00  0.00     0.005 C 
ATOM     24  C   UNL     1       4.904  -2.438  -0.914  1.00  0.00    -0.002 C 
BRANCH  24  25
ATOM     25  C   UNL     1       5.371  -3.264   0.172  1.00  0.00    -0.004 C 
ATOM     26  C   UNL     1       5.461  -4.599   0.070  1.00  0.00    -0.023 C 
BRANCH  26  27
ATOM     27  C   UNL     1       5.686  -5.486   1.261  1.00  0.00     0.072 CG0
ATOM     28  G   UNL     1       4.378  -6.177   1.692  1.00  0.00     0.000 G0
ENDBRANCH  26  27
ENDBRANCH  24  25
ENDBRANCH  22  23
BRANCH  22  29
ATOM     29  O   UNL     1       4.576   1.008  -1.756  1.00  0.00    -0.345 OA
BRANCH  29  30
ATOM     30  C   UNL     1       5.942   0.996  -2.167  1.00  0.00     0.251 C 
ATOM     31  C   UNL     1       6.253   2.315  -2.872  1.00  0.00     0.064 C 
ATOM     32  O   UNL     1       6.837   0.733  -1.096  1.00  0.00    -0.348 OA
ATOM     33  C   UNL     1       7.579   2.911  -2.428  1.00  0.00     0.027 C 
ATOM     34  C   UNL     1       7.117   1.814  -0.200  1.00  0.00     0.135 C 
ATOM     35  C   UNL     1       7.547   3.147  -0.906  1.00  0.00     0.085 C 
ATOM     36  C   UNL     1       5.977   2.025   0.797  1.00  0.00     0.040 C 
BRANCH  35  37
ATOM     37  N   UNL     1       8.835   3.702  -0.384  1.00  0.00    -0.304 NA
ATOM     38  C   UNL     1       9.276   4.896  -1.118  1.00  0.00     0.105 C 
ATOM     39  C   UNL     1       8.750   4.039   1.043  1.00  0.00     0.105 C 
ENDBRANCH  35  37
ENDBRANCH  29  30
ENDBRANCH  22  29
ENDBRANCH  20  22
ENDBRANCH  19  20
ENDBRANCH  18  19
BRANCH  18  40
ATOM     40  C   UNL     1       0.549   2.038   1.164  1.00  0.00     0.078 C 
BRANCH  40  41
ATOM     41  C   UNL     1       0.960   1.724   2.572  1.00  0.00     0.224 C 
ATOM     42  O   UNL     1       2.131   1.595   2.926  1.00  0.00    -0.303 OA
ENDBRANCH  40  41
ENDBRANCH  18  40
ENDBRANCH   1  18
BRANCH   1  43
ATOM     43  O   UNL     1      -1.406   0.116   1.308  1.00  0.00    -0.343 OA
BRANCH  43  44
ATOM     44  C   UNL     1      -2.585   0.277   0.501  1.00  0.00     0.281 C 
ATOM     45  O   UNL     1      -2.695   1.659   0.188  1.00  0.00    -0.344 OA
ATOM     46  C   UNL     1      -3.754  -0.360   1.302  1.00  0.00     0.190 C 
ATOM     47  C   UNL     1      -3.678   2.388   0.911  1.00  0.00     0.149 C 
ATOM     48  C   UNL     1      -5.170   0.279   1.142  1.00  0.00     0.122 C 
ATOM     49  C   UNL     1      -5.071   1.773   0.719  1.00  0.00     0.170 C 
ATOM     50  C   UNL     1      -3.286   2.648   2.363  1.00  0.00     0.041 C 
BRANCH  46  51
ATOM     51  O   UNL     1      -3.821  -1.778   1.003  1.00  0.00    -0.386 OA
ATOM     52  H   UNL     1      -4.192  -1.875   0.102  1.00  0.00     0.211 HD
ENDBRANCH  46  51
BRANCH  48  53
ATOM     53  N   UNL     1      -6.014   0.117   2.387  1.00  0.00    -0.301 NA
ATOM     54  C   UNL     1      -7.430   0.429   2.130  1.00  0.00     0.105 C 
ATOM     55  C   UNL     1      -5.962  -1.246   2.942  1.00  0.00     0.105 C 
ENDBRANCH  48  53
BRANCH  49  56
ATOM     56  O   UNL     1      -5.357   1.880  -0.699  1.00  0.00    -0.345 OA
BRANCH  56  57
ATOM     57  C   UNL     1      -6.672   2.351  -0.991  1.00  0.00     0.253 C 
ATOM     58  C   UNL     1      -6.623   2.962  -2.390  1.00  0.00     0.100 C 
ATOM     59  O   UNL     1      -7.610   1.288  -0.862  1.00  0.00    -0.347 OA
ATOM     60  C   UNL     1      -8.008   3.436  -2.839  1.00  0.00     0.095 C 
ATOM     61  C   UNL     1      -8.495   1.099  -1.971  1.00  0.00     0.150 C 
ATOM     62  C   UNL     1      -9.115   2.439  -2.405  1.00  0.00     0.174 C 
ATOM     63  C   UNL     1      -8.322   4.843  -2.316  1.00  0.00     0.045 C 
ATOM     64  C   UNL     1      -9.561   0.101  -1.527  1.00  0.00     0.041 C 
BRANCH  60  65
ATOM     65  O   UNL     1      -8.001   3.506  -4.283  1.00  0.00    -0.387 OA
ATOM     66  H   UNL     1      -7.387   4.211  -4.546  1.00  0.00     0.211 HD
ENDBRANCH  60  65
BRANCH  62  67
ATOM     67  O   UNL     1     -10.055   2.261  -3.469  1.00  0.00    -0.387 OA
ATOM     68  H   UNL     1      -9.595   2.602  -4.268  1.00  0.00     0.211 HD
ENDBRANCH  62  67
ENDBRANCH  56  57
ENDBRANCH  49  56
ENDBRANCH  43  44
ENDBRANCH   1  43
TORSDOF 17
