REMARK SMILES CCS(=O)(=O)c1ccc(/C=N/NC(N)=S)cc1
REMARK SMILES IDX 6 1 7 2 8 3 9 4 16 5 17 6 3 7 4 8 5 9 2 10 1 11 10 12 11 13
REMARK SMILES IDX 12 14 13 15 14 16 15 17
REMARK H PARENT 12 18 14 19 14 20
ROOT
ATOM      1  C   UNL     1      -1.755  -0.710   0.288  1.00  0.00     0.067 A 
ATOM      2  C   UNL     1      -1.272  -1.497  -0.763  1.00  0.00     0.021 A 
ATOM      3  C   UNL     1       0.097  -1.503  -1.045  1.00  0.00     0.011 A 
ATOM      4  C   UNL     1       0.969  -0.729  -0.272  1.00  0.00    -0.005 A 
ATOM      5  C   UNL     1       0.480   0.046   0.787  1.00  0.00     0.011 A 
ATOM      6  C   UNL     1      -0.886   0.051   1.074  1.00  0.00     0.021 A 
ENDROOT
BRANCH   1   7
ATOM      7  S   UNL     1      -3.496  -0.708   0.664  1.00  0.00     0.178 S 
ATOM      8  O   UNL     1      -3.619  -0.582   2.103  1.00  0.00    -0.224 OA
ATOM      9  O   UNL     1      -4.089  -1.829  -0.042  1.00  0.00    -0.224 OA
BRANCH   7  10
ATOM     10  C   UNL     1      -4.069   0.800  -0.095  1.00  0.00     0.139 C 
ATOM     11  C   UNL     1      -5.559   0.992   0.104  1.00  0.00     0.021 C 
ENDBRANCH   7  10
ENDBRANCH   1   7
BRANCH   4  12
ATOM     12  C   UNL     1       2.411  -0.748  -0.588  1.00  0.00     0.141 C 
ATOM     13  N   UNL     1       3.254  -0.011   0.059  1.00  0.00    -0.181 NA
BRANCH  13  14
ATOM     14  N   UNL     1       4.555  -0.119  -0.328  1.00  0.00    -0.254 N 
ATOM     15  C   UNL     1       5.535   0.688   0.204  1.00  0.00     0.184 C 
ATOM     16  N   UNL     1       6.779   0.416  -0.293  1.00  0.00    -0.375 N 
ATOM     17  S   UNL     1       5.357   1.911   1.319  1.00  0.00    -0.040 S 
ATOM     18  H   UNL     1       4.787  -0.705  -1.119  1.00  0.00     0.193 HD
ATOM     19  H   UNL     1       7.535   0.920   0.159  1.00  0.00     0.159 HD
ATOM     20  H   UNL     1       7.001  -0.536  -0.551  1.00  0.00     0.159 HD
ENDBRANCH  13  14
ENDBRANCH   4  12
TORSDOF 4
