REMARK SMILES NS(=O)(=O)c1ccc(N2C(=O)CC(c3ccccc3)C2=O)c(Cl)c1
REMARK SMILES IDX 5 1 24 2 22 3 23 4 8 5 7 6 6 7 2 8 3 9 4 10 1 11 9 14 10 15
REMARK SMILES IDX 20 16 11 17 12 18 13 19 21 20 14 21 15 22 19 23 16 24 18 25
REMARK SMILES IDX 17 26
REMARK H PARENT 1 12 1 13
ROOT
ATOM      1  C   UNL     1       4.028   0.249   0.049  1.00  0.00     0.083 A 
ATOM      2  C   UNL     1       3.377  -0.318  -1.046  1.00  0.00     0.044 A 
ATOM      3  C   UNL     1       2.002  -0.116  -1.214  1.00  0.00     0.066 A 
ATOM      4  Cl  UNL     1       1.240  -1.039  -2.469  1.00  0.00    -0.082 Cl
ATOM      5  C   UNL     1       1.271   0.678  -0.304  1.00  0.00     0.070 A 
ATOM      6  C   UNL     1       1.951   1.217   0.803  1.00  0.00     0.030 A 
ATOM      7  C   UNL     1       3.323   1.017   0.976  1.00  0.00     0.024 A 
ENDROOT
BRANCH   1   8
ATOM      8  S   UNL     1       5.770   0.006   0.270  1.00  0.00     0.238 S 
ATOM      9  O   UNL     1       6.310   1.179   0.912  1.00  0.00    -0.207 OA
ATOM     10  O   UNL     1       6.313  -0.535  -0.954  1.00  0.00    -0.207 OA
BRANCH   8  11
ATOM     11  N   UNL     1       5.798  -1.259   1.377  1.00  0.00    -0.225 NA
ATOM     12  H   UNL     1       4.889  -1.478   1.782  1.00  0.00     0.137 HD
ATOM     13  H   UNL     1       6.232  -2.075   0.941  1.00  0.00     0.137 HD
ENDBRANCH   8  11
ENDBRANCH   1   8
BRANCH   5  14
ATOM     14  N   UNL     1      -0.116   0.938  -0.469  1.00  0.00    -0.248 N 
ATOM     15  C   UNL     1      -0.653   1.417  -1.641  1.00  0.00     0.234 C 
ATOM     16  C   UNL     1      -1.023   0.985   0.562  1.00  0.00     0.241 C 
ATOM     17  O   UNL     1      -0.067   1.718  -2.672  1.00  0.00    -0.274 OA
ATOM     18  C   UNL     1      -2.117   1.679  -1.445  1.00  0.00     0.119 C 
ATOM     19  C   UNL     1      -2.398   1.222  -0.020  1.00  0.00     0.119 C 
ATOM     20  O   UNL     1      -0.808   0.836   1.759  1.00  0.00    -0.273 OA
BRANCH  19  21
ATOM     21  C   UNL     1      -3.277  -0.009   0.074  1.00  0.00    -0.035 A 
ATOM     22  C   UNL     1      -4.383  -0.001   0.938  1.00  0.00     0.004 A 
ATOM     23  C   UNL     1      -3.009  -1.176  -0.661  1.00  0.00     0.004 A 
ATOM     24  C   UNL     1      -5.207  -1.123   1.053  1.00  0.00     0.000 A 
ATOM     25  C   UNL     1      -3.835  -2.296  -0.544  1.00  0.00     0.000 A 
ATOM     26  C   UNL     1      -4.933  -2.269   0.311  1.00  0.00     0.000 A 
ENDBRANCH  19  21
ENDBRANCH   5  14
TORSDOF 4
