REMARK SMILES CCC(=O)N(c1ccccc1)C1(COC)CCN(CCc2cccs2)CC1
REMARK SMILES IDX 12 1 16 2 17 3 18 4 26 5 27 6 5 7 3 8 4 9 2 10 1 11 6 12
REMARK SMILES IDX 7 13 11 14 8 15 10 16 9 17 13 18 14 19 15 20 19 21 20 22
REMARK SMILES IDX 21 23 22 24 25 25 23 26 24 27
REMARK H PARENT
ROOT
ATOM      1  C   UNL     1      -0.836   0.412   0.321  1.00  0.00     0.073 C 
ATOM      2  C   UNL     1      -0.058   0.870  -0.954  1.00  0.00     0.047 C 
ATOM      3  C   UNL     1       1.108   1.812  -0.647  1.00  0.00     0.087 C 
ATOM      4  N   UNL     1       2.071   1.163   0.245  1.00  0.00    -0.303 NA
ATOM      5  C   UNL     1       1.429   0.807   1.517  1.00  0.00     0.087 C 
ATOM      6  C   UNL     1       0.239  -0.131   1.304  1.00  0.00     0.047 C 
ENDROOT
BRANCH   1   7
ATOM      7  N   UNL     1      -1.822  -0.718   0.027  1.00  0.00    -0.304 N 
BRANCH   7   8
ATOM      8  C   UNL     1      -2.609  -1.261   1.059  1.00  0.00     0.227 C 
ATOM      9  O   UNL     1      -2.565  -0.855   2.220  1.00  0.00    -0.275 OA
BRANCH   8  10
ATOM     10  C   UNL     1      -3.545  -2.408   0.677  1.00  0.00     0.097 C 
ATOM     11  C   UNL     1      -4.224  -3.027   1.890  1.00  0.00     0.014 C 
ENDBRANCH   8  10
ENDBRANCH   7   8
BRANCH   7  12
ATOM     12  C   UNL     1      -2.164  -0.974  -1.326  1.00  0.00     0.044 A 
ATOM     13  C   UNL     1      -3.207  -0.271  -1.935  1.00  0.00     0.026 A 
ATOM     14  C   UNL     1      -1.458  -1.946  -2.040  1.00  0.00     0.026 A 
ATOM     15  C   UNL     1      -3.537  -0.538  -3.264  1.00  0.00     0.002 A 
ATOM     16  C   UNL     1      -1.791  -2.208  -3.369  1.00  0.00     0.002 A 
ATOM     17  C   UNL     1      -2.830  -1.504  -3.980  1.00  0.00     0.000 A 
ENDBRANCH   7  12
ENDBRANCH   1   7
BRANCH   1  18
ATOM     18  C   UNL     1      -1.631   1.650   0.879  1.00  0.00     0.188 C 
BRANCH  18  19
ATOM     19  O   UNL     1      -1.311   1.956   2.237  1.00  0.00    -0.382 OA
ATOM     20  C   UNL     1      -2.233   2.872   2.810  1.00  0.00     0.195 C 
ENDBRANCH  18  19
ENDBRANCH   1  18
BRANCH   4  21
ATOM     21  C   UNL     1       3.252   2.026   0.446  1.00  0.00     0.090 C 
BRANCH  21  22
ATOM     22  C   UNL     1       4.469   1.339   1.096  1.00  0.00     0.062 C 
BRANCH  22  23
ATOM     23  C   UNL     1       5.067   0.260   0.236  1.00  0.00     0.006 A 
ATOM     24  C   UNL     1       5.886   0.404  -0.867  1.00  0.00     0.015 A 
ATOM     25  S   UNL     1       4.778  -1.392   0.591  1.00  0.00    -0.149 S 
ATOM     26  C   UNL     1       6.268  -0.849  -1.427  1.00  0.00     0.012 A 
ATOM     27  C   UNL     1       5.733  -1.908  -0.730  1.00  0.00     0.065 A 
ENDBRANCH  22  23
ENDBRANCH  21  22
ENDBRANCH   4  21
TORSDOF 9
