REMARK SMILES S=C1SCN(Cc2ccccc2)CN1Cc1ccccc1
REMARK SMILES IDX 1 1 2 2 3 3 4 4 5 5 13 6 14 7 15 8 16 9 17 10 21 11 18 12
REMARK SMILES IDX 20 13 19 14 6 15 7 16 8 17 12 18 9 19 11 20 10 21
REMARK H PARENT
ROOT
ATOM      1  S   UNL     1       1.239  -3.488  -2.081  1.00  0.00    -0.053 S 
ATOM      2  C   UNL     1       0.704  -1.942  -1.688  1.00  0.00     0.138 C 
ATOM      3  S   UNL     1      -0.352  -1.130  -2.833  1.00  0.00    -0.081 SA
ATOM      4  C   UNL     1      -1.387  -0.147  -1.740  1.00  0.00     0.164 C 
ATOM      5  N   UNL     1      -0.939  -0.058  -0.354  1.00  0.00    -0.272 NA
ATOM      6  C   UNL     1       0.500   0.099  -0.309  1.00  0.00     0.207 C 
ATOM      7  N   UNL     1       1.053  -1.218  -0.551  1.00  0.00    -0.340 N 
ENDROOT
BRANCH   7   8
ATOM      8  C   UNL     1       2.050  -1.679   0.425  1.00  0.00     0.154 C 
BRANCH   8   9
ATOM      9  C   UNL     1       3.310  -0.841   0.405  1.00  0.00    -0.029 A 
ATOM     10  C   UNL     1       3.710  -0.127   1.544  1.00  0.00     0.005 A 
ATOM     11  C   UNL     1       4.105  -0.772  -0.749  1.00  0.00     0.005 A 
ATOM     12  C   UNL     1       4.871   0.647   1.526  1.00  0.00     0.000 A 
ATOM     13  C   UNL     1       5.266   0.003  -0.766  1.00  0.00     0.000 A 
ATOM     14  C   UNL     1       5.647   0.713   0.371  1.00  0.00     0.000 A 
ENDBRANCH   8   9
ENDBRANCH   7   8
BRANCH   5  15
ATOM     15  C   UNL     1      -1.603   1.055   0.344  1.00  0.00     0.122 C 
BRANCH  15  16
ATOM     16  C   UNL     1      -3.100   0.876   0.480  1.00  0.00    -0.034 A 
ATOM     17  C   UNL     1      -3.984   1.839  -0.028  1.00  0.00     0.005 A 
ATOM     18  C   UNL     1      -3.626  -0.251   1.130  1.00  0.00     0.005 A 
ATOM     19  C   UNL     1      -5.364   1.673   0.106  1.00  0.00     0.000 A 
ATOM     20  C   UNL     1      -5.005  -0.415   1.262  1.00  0.00     0.000 A 
ATOM     21  C   UNL     1      -5.874   0.547   0.750  1.00  0.00     0.000 A 
ENDBRANCH  15  16
ENDBRANCH   5  15
TORSDOF 4
