REMARK SMILES Nc1ccc(S(N)(=O)=O)cc1
REMARK SMILES IDX 2 1 3 2 4 3 5 4 10 5 11 6 1 7 6 10 8 11 9 12 7 13
REMARK H PARENT 1 8 1 9 7 14 7 15
ROOT
ATOM      1  C   UNL     1       1.991   0.013  -0.295  1.00  0.00     0.031 A 
ATOM      2  C   UNL     1       1.166  -0.693  -1.176  1.00  0.00     0.027 A 
ATOM      3  C   UNL     1      -0.198  -0.844  -0.914  1.00  0.00     0.024 A 
ATOM      4  C   UNL     1      -0.733  -0.311   0.260  1.00  0.00     0.082 A 
ATOM      5  C   UNL     1       0.088   0.336   1.185  1.00  0.00     0.024 A 
ATOM      6  C   UNL     1       1.451   0.479   0.908  1.00  0.00     0.027 A 
ENDROOT
BRANCH   1   7
ATOM      7  N   UNL     1       3.373   0.052  -0.506  1.00  0.00    -0.399 N 
ATOM      8  H   UNL     1       3.651  -0.019  -1.479  1.00  0.00     0.156 HD
ATOM      9  H   UNL     1       3.851   0.804  -0.019  1.00  0.00     0.156 HD
ENDBRANCH   1   7
BRANCH   4  10
ATOM     10  S   UNL     1      -2.461  -0.512   0.598  1.00  0.00     0.238 S 
ATOM     11  O   UNL     1      -2.692  -0.245   1.999  1.00  0.00    -0.207 OA
ATOM     12  O   UNL     1      -2.920  -1.716  -0.051  1.00  0.00    -0.207 OA
BRANCH  10  13
ATOM     13  N   UNL     1      -3.117   0.804  -0.225  1.00  0.00    -0.225 NA
ATOM     14  H   UNL     1      -2.441   1.283  -0.819  1.00  0.00     0.137 HD
ATOM     15  H   UNL     1      -3.545   1.436   0.454  1.00  0.00     0.137 HD
ENDBRANCH  10  13
ENDBRANCH   4  10
TORSDOF 3
