REMARK SMILES COc1ccc(CCC(C)NCC(O)c2ccc(O)c(S(C)=O)c2)cc1
REMARK SMILES IDX 9 1 10 2 8 3 7 4 6 5 3 6 4 7 26 8 5 9 25 10 2 11 1 12 11 13
REMARK SMILES IDX 12 15 13 16 14 17 15 19 24 20 16 21 20 22 17 23 18 24 21 25
REMARK SMILES IDX 23 26 22 27 19 28
REMARK H PARENT 11 14 14 18 19 29
ROOT
ATOM      1  C   UNL     1       0.698  -1.123  -0.702  1.00  0.00     0.051 C 
ATOM      2  C   UNL     1       0.472  -0.888  -2.200  1.00  0.00     0.024 C 
ENDROOT
BRANCH   1   3
ATOM      3  C   UNL     1       2.189  -0.985  -0.328  1.00  0.00     0.023 C 
BRANCH   3   4
ATOM      4  C   UNL     1       2.796   0.405  -0.576  1.00  0.00     0.037 C 
BRANCH   4   5
ATOM      5  C   UNL     1       4.208   0.484  -0.044  1.00  0.00    -0.048 A 
ATOM      6  C   UNL     1       6.835   0.582   0.964  1.00  0.00     0.118 A 
ATOM      7  C   UNL     1       5.751   0.941   1.770  1.00  0.00     0.046 A 
ATOM      8  C   UNL     1       6.602   0.173  -0.350  1.00  0.00     0.046 A 
ATOM      9  C   UNL     1       4.446   0.891   1.274  1.00  0.00     0.007 A 
ATOM     10  C   UNL     1       5.296   0.121  -0.851  1.00  0.00     0.007 A 
BRANCH   6  11
ATOM     11  O   UNL     1       8.056   0.676   1.572  1.00  0.00    -0.497 OA
ATOM     12  C   UNL     1       9.181   0.245   0.826  1.00  0.00     0.278 C 
ENDBRANCH   6  11
ENDBRANCH   4   5
ENDBRANCH   3   4
ENDBRANCH   1   3
BRANCH   1  13
ATOM     13  N   UNL     1      -0.118  -0.186   0.094  1.00  0.00    -0.311 NA
ATOM     14  H   UNL     1       0.293  -0.100   1.029  1.00  0.00     0.123 HD
BRANCH  13  15
ATOM     15  C   UNL     1      -1.508  -0.665   0.266  1.00  0.00     0.117 C 
BRANCH  15  16
ATOM     16  C   UNL     1      -2.376   0.482   0.832  1.00  0.00     0.158 C 
BRANCH  16  17
ATOM     17  O   UNL     1      -2.305   1.597  -0.067  1.00  0.00    -0.387 OA
ATOM     18  H   UNL     1      -1.377   1.591  -0.380  1.00  0.00     0.211 HD
ENDBRANCH  16  17
BRANCH  16  19
ATOM     19  C   UNL     1      -3.819   0.069   1.015  1.00  0.00    -0.017 A 
ATOM     20  C   UNL     1      -4.720   0.074  -0.064  1.00  0.00     0.028 A 
ATOM     21  C   UNL     1      -4.276  -0.359   2.269  1.00  0.00     0.010 A 
ATOM     22  C   UNL     1      -6.057  -0.316   0.102  1.00  0.00     0.081 A 
ATOM     23  C   UNL     1      -5.602  -0.762   2.444  1.00  0.00     0.048 A 
ATOM     24  C   UNL     1      -6.485  -0.741   1.366  1.00  0.00     0.131 A 
BRANCH  22  25
ATOM     25  S   UNL     1      -7.154  -0.264  -1.339  1.00  0.00     0.054 S 
ATOM     26  O   UNL     1      -8.461  -0.834  -0.862  1.00  0.00    -0.255 OA
ATOM     27  C   UNL     1      -7.344   1.541  -1.411  1.00  0.00     0.129 C 
ENDBRANCH  22  25
BRANCH  24  28
ATOM     28  O   UNL     1      -7.762  -1.152   1.631  1.00  0.00    -0.507 OA
ATOM     29  H   UNL     1      -8.269  -1.147   0.788  1.00  0.00     0.293 HD
ENDBRANCH  24  28
ENDBRANCH  16  19
ENDBRANCH  15  16
ENDBRANCH  13  15
ENDBRANCH   1  13
TORSDOF 11
