REMARK SMILES CCN(CC)C(=S)SC(=S)N(CC)CC
REMARK SMILES IDX 8 1 6 2 3 3 7 4 2 5 1 6 4 7 5 8 9 9 10 10 11 11 12 12 13 13
REMARK SMILES IDX 14 14 15 15
REMARK H PARENT
ROOT
ATOM      1  S   UNL     1      -0.093  -1.307  -0.059  1.00  0.00    -0.031 SA
ENDROOT
BRANCH   1   2
ATOM      2  C   UNL     1       1.084  -0.478   0.978  1.00  0.00     0.143 C 
ATOM      3  N   UNL     1       2.443  -0.635   0.624  1.00  0.00    -0.358 N 
ATOM      4  S   UNL     1       0.543   0.361   2.344  1.00  0.00    -0.052 S 
BRANCH   3   5
ATOM      5  C   UNL     1       2.927  -1.638  -0.345  1.00  0.00     0.114 C 
ATOM      6  C   UNL     1       3.195  -1.070  -1.728  1.00  0.00     0.027 C 
ENDBRANCH   3   5
BRANCH   3   7
ATOM      7  C   UNL     1       3.490   0.226   1.208  1.00  0.00     0.114 C 
ATOM      8  C   UNL     1       3.520   1.620   0.594  1.00  0.00     0.027 C 
ENDBRANCH   3   7
ENDBRANCH   1   2
BRANCH   1   9
ATOM      9  C   UNL     1      -1.052   0.092  -0.577  1.00  0.00     0.143 C 
ATOM     10  S   UNL     1      -0.350   1.208  -1.634  1.00  0.00    -0.052 S 
ATOM     11  N   UNL     1      -2.388   0.141  -0.123  1.00  0.00    -0.358 N 
BRANCH  11  12
ATOM     12  C   UNL     1      -2.994  -0.868   0.766  1.00  0.00     0.114 C 
ATOM     13  C   UNL     1      -3.653  -1.992  -0.021  1.00  0.00     0.027 C 
ENDBRANCH  11  12
BRANCH  11  14
ATOM     14  C   UNL     1      -3.292   1.245  -0.491  1.00  0.00     0.114 C 
ATOM     15  C   UNL     1      -3.217   2.395   0.504  1.00  0.00     0.027 C 
ENDBRANCH  11  14
ENDBRANCH   1   9
TORSDOF 6
