REMARK SMILES Cc1nc(NS(=O)(=O)c2ccc(N)cc2)oc1C
REMARK SMILES IDX 6 1 7 2 8 3 5 4 4 6 17 7 2 8 16 9 3 10 18 11 1 12 9 13 10 14
REMARK SMILES IDX 15 15 11 16 14 17 12 18 13 19
REMARK H PARENT 5 5 13 20 13 21
ROOT
ATOM      1  S   UNL     1      -0.456  -1.863  -0.818  1.00  0.00     0.265 S 
ATOM      2  O   UNL     1       0.491  -2.220   0.214  1.00  0.00    -0.201 OA
ATOM      3  O   UNL     1      -0.963  -2.864  -1.737  1.00  0.00    -0.201 OA
ENDROOT
BRANCH   1   4
ATOM      4  N   UNL     1       0.096  -0.606  -1.776  1.00  0.00    -0.232 N 
ATOM      5  H   UNL     1       0.104  -0.875  -2.756  1.00  0.00     0.185 HD
BRANCH   4   6
ATOM      6  C   UNL     1       1.376  -0.103  -1.372  1.00  0.00     0.309 A 
ATOM      7  C   UNL     1       2.961   0.806  -0.232  1.00  0.00     0.126 A 
ATOM      8  C   UNL     1       3.384   0.561  -1.521  1.00  0.00     0.081 A 
ATOM      9  O   UNL     1       1.659   0.402  -0.138  1.00  0.00    -0.428 OA
ATOM     10  N   UNL     1       2.353   0.002  -2.243  1.00  0.00    -0.198 NA
ATOM     11  C   UNL     1       3.573   1.373   0.980  1.00  0.00     0.090 C 
ATOM     12  C   UNL     1       4.701   0.819  -2.140  1.00  0.00     0.071 C 
ENDBRANCH   4   6
ENDBRANCH   1   4
BRANCH   1  13
ATOM     13  C   UNL     1      -1.856  -1.100  -0.034  1.00  0.00     0.088 A 
ATOM     14  C   UNL     1      -1.659  -0.328   1.113  1.00  0.00     0.024 A 
ATOM     15  C   UNL     1      -3.144  -1.321  -0.526  1.00  0.00     0.024 A 
ATOM     16  C   UNL     1      -2.760   0.256   1.746  1.00  0.00     0.027 A 
ATOM     17  C   UNL     1      -4.235  -0.730   0.118  1.00  0.00     0.027 A 
ATOM     18  C   UNL     1      -4.049   0.104   1.225  1.00  0.00     0.031 A 
BRANCH  18  19
ATOM     19  N   UNL     1      -5.154   0.591   1.931  1.00  0.00    -0.399 N 
ATOM     20  H   UNL     1      -5.987   0.714   1.364  1.00  0.00     0.156 HD
ATOM     21  H   UNL     1      -4.953   1.405   2.504  1.00  0.00     0.156 HD
ENDBRANCH  18  19
ENDBRANCH   1  13
TORSDOF 4
