REMARK SMILES O=C(O)c1cc(/N=N/c2ccc(S(=O)(=O)Nc3ccccn3)cc2)ccc1O
REMARK SMILES IDX 7 1 8 2 6 3 4 4 5 5 27 6 26 7 25 8 2 9 1 10 3 11 28 13 9 15
REMARK SMILES IDX 10 16 24 17 11 18 23 19 12 20 13 21 14 22 15 23 16 24 17 26
REMARK SMILES IDX 18 27 22 28 19 29 21 30 20 31
REMARK H PARENT 3 12 28 14 16 25
ROOT
ATOM      1  N   UNL     1       2.244  -0.590   0.778  1.00  0.00    -0.151 NA
ATOM      2  N   UNL     1       1.367  -0.754  -0.100  1.00  0.00    -0.151 NA
ENDROOT
BRANCH   1   3
ATOM      3  C   UNL     1       3.509  -0.456   0.180  1.00  0.00     0.087 A 
ATOM      4  C   UNL     1       5.133   0.828  -1.108  1.00  0.00     0.103 A 
ATOM      5  C   UNL     1       3.857   0.696  -0.537  1.00  0.00     0.049 A 
ATOM      6  C   UNL     1       6.065  -0.204  -0.944  1.00  0.00     0.130 A 
ATOM      7  C   UNL     1       5.731  -1.350  -0.221  1.00  0.00     0.049 A 
ATOM      8  C   UNL     1       4.458  -1.470   0.341  1.00  0.00     0.034 A 
BRANCH   4   9
ATOM      9  C   UNL     1       5.463   2.045  -1.892  1.00  0.00     0.339 C 
ATOM     10  O   UNL     1       6.274   2.165  -2.790  1.00  0.00    -0.246 OA
BRANCH   9  11
ATOM     11  O   UNL     1       4.727   3.104  -1.495  1.00  0.00    -0.478 OA
ATOM     12  H   UNL     1       5.057   3.829  -2.066  1.00  0.00     0.297 HD
ENDBRANCH   9  11
ENDBRANCH   4   9
BRANCH   6  13
ATOM     13  O   UNL     1       7.324  -0.092  -1.461  1.00  0.00    -0.507 OA
ATOM     14  H   UNL     1       7.810  -0.924  -1.342  1.00  0.00     0.293 HD
ENDBRANCH   6  13
ENDBRANCH   1   3
BRANCH   2  15
ATOM     15  C   UNL     1       0.100  -0.892   0.493  1.00  0.00     0.086 A 
ATOM     16  C   UNL     1      -0.592  -2.103   0.359  1.00  0.00     0.031 A 
ATOM     17  C   UNL     1      -0.510   0.169   1.178  1.00  0.00     0.031 A 
ATOM     18  C   UNL     1      -1.866  -2.262   0.911  1.00  0.00     0.024 A 
ATOM     19  C   UNL     1      -1.783   0.022   1.734  1.00  0.00     0.024 A 
ATOM     20  C   UNL     1      -2.460  -1.191   1.585  1.00  0.00     0.088 A 
BRANCH  20  21
ATOM     21  S   UNL     1      -4.079  -1.400   2.298  1.00  0.00     0.263 S 
ATOM     22  O   UNL     1      -4.181  -2.781   2.723  1.00  0.00    -0.201 OA
ATOM     23  O   UNL     1      -4.298  -0.317   3.234  1.00  0.00    -0.201 OA
BRANCH  21  24
ATOM     24  N   UNL     1      -5.117  -1.219   0.988  1.00  0.00    -0.263 N 
ATOM     25  H   UNL     1      -5.092  -2.035   0.382  1.00  0.00     0.182 HD
BRANCH  24  26
ATOM     26  C   UNL     1      -4.987  -0.035   0.240  1.00  0.00     0.139 A 
ATOM     27  C   UNL     1      -5.307   1.216   0.738  1.00  0.00     0.048 A 
ATOM     28  N   UNL     1      -4.499  -0.269  -0.990  1.00  0.00    -0.239 NA
ATOM     29  C   UNL     1      -5.102   2.314  -0.091  1.00  0.00     0.005 A 
ATOM     30  C   UNL     1      -4.311   0.818  -1.771  1.00  0.00     0.113 A 
ATOM     31  C   UNL     1      -4.592   2.116  -1.370  1.00  0.00     0.020 A 
ENDBRANCH  24  26
ENDBRANCH  21  24
ENDBRANCH  20  21
ENDBRANCH   2  15
TORSDOF 8
