REMARK SMILES O=C1C(CCS(=O)c2ccccc2)C(=O)N(c2ccccc2)N1c1ccccc1
REMARK SMILES IDX 4 1 3 2 1 3 2 4 23 5 14 6 16 7 15 8 24 9 25 10 29 11 26 12
REMARK SMILES IDX 28 13 27 14 17 15 18 16 22 17 19 18 21 19 20 20 5 21 6 22
REMARK SMILES IDX 7 23 8 24 9 25 13 26 10 27 12 28 11 29
REMARK H PARENT
ROOT
ATOM      1  C   UNL     1       1.811  -1.399   0.668  1.00  0.00     0.037 C 
ENDROOT
BRANCH   1   2
ATOM      2  C   UNL     1       0.398  -1.271   1.239  1.00  0.00     0.173 C 
ATOM      3  O   UNL     1      -0.531  -3.248   0.229  1.00  0.00    -0.272 OA
ATOM      4  C   UNL     1      -0.627  -2.053   0.463  1.00  0.00     0.258 C 
ATOM      5  N   UNL     1      -1.678  -1.168   0.180  1.00  0.00    -0.213 N 
ATOM      6  C   UNL     1      -0.102   0.147   1.252  1.00  0.00     0.258 C 
ATOM      7  N   UNL     1      -1.321   0.157   0.554  1.00  0.00    -0.213 N 
ATOM      8  O   UNL     1       0.533   1.082   1.718  1.00  0.00    -0.272 OA
BRANCH   5   9
ATOM      9  C   UNL     1      -3.037  -1.610   0.107  1.00  0.00     0.067 A 
ATOM     10  C   UNL     1      -3.363  -2.871  -0.413  1.00  0.00     0.028 A 
ATOM     11  C   UNL     1      -4.091  -0.794   0.551  1.00  0.00     0.028 A 
ATOM     12  C   UNL     1      -4.692  -3.301  -0.490  1.00  0.00     0.002 A 
ATOM     13  C   UNL     1      -5.420  -1.222   0.475  1.00  0.00     0.002 A 
ATOM     14  C   UNL     1      -5.720  -2.476  -0.047  1.00  0.00     0.000 A 
ENDBRANCH   5   9
BRANCH   7  15
ATOM     15  C   UNL     1      -1.697   1.298  -0.227  1.00  0.00     0.067 A 
ATOM     16  C   UNL     1      -2.298   1.154  -1.488  1.00  0.00     0.028 A 
ATOM     17  C   UNL     1      -1.477   2.598   0.251  1.00  0.00     0.028 A 
ATOM     18  C   UNL     1      -2.663   2.272  -2.245  1.00  0.00     0.002 A 
ATOM     19  C   UNL     1      -1.842   3.717  -0.506  1.00  0.00     0.002 A 
ATOM     20  C   UNL     1      -2.434   3.553  -1.754  1.00  0.00     0.000 A 
ENDBRANCH   7  15
ENDBRANCH   1   2
BRANCH   1  21
ATOM     21  C   UNL     1       1.946  -0.861  -0.759  1.00  0.00     0.112 C 
BRANCH  21  22
ATOM     22  S   UNL     1       3.638  -1.011  -1.426  1.00  0.00     0.053 S 
ATOM     23  O   UNL     1       4.141  -2.387  -1.103  1.00  0.00    -0.254 OA
BRANCH  22  24
ATOM     24  C   UNL     1       4.492   0.123  -0.307  1.00  0.00     0.039 A 
ATOM     25  C   UNL     1       4.197   1.491  -0.334  1.00  0.00     0.018 A 
ATOM     26  C   UNL     1       5.472  -0.349   0.573  1.00  0.00     0.018 A 
ATOM     27  C   UNL     1       4.858   2.371   0.526  1.00  0.00     0.001 A 
ATOM     28  C   UNL     1       6.133   0.532   1.431  1.00  0.00     0.001 A 
ATOM     29  C   UNL     1       5.823   1.891   1.409  1.00  0.00     0.000 A 
ENDBRANCH  22  24
ENDBRANCH  21  22
ENDBRANCH   1  21
TORSDOF 6
