REMARK SMILES COc1cc(S(C)=O)ccc1-c1nc2cccnc2[nH]1
REMARK SMILES IDX 3 1 11 2 10 3 9 4 5 5 4 6 2 7 1 8 12 9 13 10 20 11 14 12
REMARK SMILES IDX 19 13 15 14 18 15 16 16 17 17 6 19 8 20 7 21
REMARK H PARENT 20 18
ROOT
ATOM      1  C   UNL     1       1.062  -0.331  -0.575  1.00  0.00     0.131 A 
ATOM      2  C   UNL     1       0.180   0.590   0.036  1.00  0.00     0.059 A 
ATOM      3  C   UNL     1       0.724   1.698   0.712  1.00  0.00     0.017 A 
ATOM      4  C   UNL     1       2.103   1.893   0.793  1.00  0.00     0.019 A 
ATOM      5  C   UNL     1       2.970   0.975   0.204  1.00  0.00     0.042 A 
ATOM      6  C   UNL     1       2.449  -0.129  -0.482  1.00  0.00     0.064 A 
ENDROOT
BRANCH   1   7
ATOM      7  O   UNL     1       0.495  -1.398  -1.231  1.00  0.00    -0.496 OA
ATOM      8  C   UNL     1       1.357  -2.277  -1.945  1.00  0.00     0.278 C 
ENDBRANCH   1   7
BRANCH   2   9
ATOM      9  C   UNL     1      -1.289   0.464   0.007  1.00  0.00     0.143 A 
ATOM     10  N   UNL     1      -2.154   1.293   0.577  1.00  0.00    -0.227 NA
ATOM     11  N   UNL     1      -1.965  -0.554  -0.631  1.00  0.00    -0.323 N 
ATOM     12  C   UNL     1      -3.400   0.791   0.294  1.00  0.00     0.108 A 
ATOM     13  C   UNL     1      -3.301  -0.367  -0.461  1.00  0.00     0.157 A 
ATOM     14  C   UNL     1      -4.681   1.239   0.631  1.00  0.00     0.034 A 
ATOM     15  N   UNL     1      -4.294  -1.144  -0.930  1.00  0.00    -0.237 NA
ATOM     16  C   UNL     1      -5.761   0.478   0.174  1.00  0.00     0.022 A 
ATOM     17  C   UNL     1      -5.515  -0.669  -0.579  1.00  0.00     0.113 A 
ATOM     18  H   UNL     1      -1.532  -1.312  -1.138  1.00  0.00     0.170 HD
ENDBRANCH   2   9
BRANCH   5  19
ATOM     19  S   UNL     1       4.763   1.196   0.302  1.00  0.00     0.050 S 
ATOM     20  O   UNL     1       4.979   2.592   0.810  1.00  0.00    -0.255 OA
ATOM     21  C   UNL     1       5.045   0.072   1.695  1.00  0.00     0.129 C 
ENDBRANCH   5  19
TORSDOF 3
