REMARK SMILES Cc1ccc(-n2nccn2)c(C(=O)N2CCN(c3nc4cc(Cl)ccc4o3)CC[C@H]2C)c1
REMARK SMILES IDX 15 1 14 2 30 3 31 4 12 6 13 7 11 8 32 9 5 10 2 11 4 12 3 13
REMARK SMILES IDX 1 14 6 15 7 16 10 17 8 18 9 19 16 20 17 21 28 22 29 23 18 25
REMARK SMILES IDX 19 26 27 27 20 28 26 29 21 30 25 31 22 32 24 33 23 34
REMARK H PARENT
REMARK Flexibility Score:  112.900
ROOT
ATOM      1  C   UNL     1       0.143  -1.562  -0.747  1.00  0.00     0.141 C 
ENDROOT
BRANCH   1   2
ATOM      2  N   UNL     1      -0.832  -0.517  -0.399  1.00  0.00    -0.334 N 
BRANCH   2   3
ATOM      3  C   UNL     1      -0.505   0.909  -0.607  1.00  0.00     0.084 CG0
ATOM      4  C   UNL     1      -0.484   1.284  -2.091  1.00  0.00     0.031 C 
ATOM      5  G   UNL     1       0.771   1.390   0.115  1.00  0.00     0.000 G0
ENDBRANCH   2   3
BRANCH   2   6
ATOM      6  C   UNL     1      -2.136  -0.995  -0.179  1.00  0.00     0.256 C 
ATOM      7  O   UNL     1      -2.439  -2.187  -0.166  1.00  0.00    -0.269 OA
BRANCH   6   8
ATOM      8  C   UNL     1      -3.201  -0.040   0.180  1.00  0.00     0.067 A 
ATOM      9  C   UNL     1      -3.166   0.437   1.505  1.00  0.00     0.019 A 
ATOM     10  C   UNL     1      -4.270   0.296  -0.662  1.00  0.00     0.098 A 
ATOM     11  C   UNL     1      -4.167   1.285   1.991  1.00  0.00    -0.050 A 
ATOM     12  C   UNL     1      -5.289   1.126  -0.157  1.00  0.00     0.031 A 
ATOM     13  C   UNL     1      -5.234   1.615   1.153  1.00  0.00     0.006 A 
ATOM     14  C   UNL     1      -4.135   1.764   3.412  1.00  0.00     0.044 C 
BRANCH  10  15
ATOM     15  N   UNL     1      -4.370  -0.159  -2.005  1.00  0.00    -0.151 N 
ATOM     16  N   UNL     1      -5.478   0.108  -2.763  1.00  0.00    -0.157 NA
ATOM     17  N   UNL     1      -3.370  -0.800  -2.663  1.00  0.00    -0.157 NA
ATOM     18  C   UNL     1      -5.183  -0.481  -3.923  1.00  0.00     0.157 A 
ATOM     19  C   UNL     1      -3.906  -1.035  -3.860  1.00  0.00     0.157 A 
ENDBRANCH  10  15
ENDBRANCH   6   8
ENDBRANCH   2   6
ENDBRANCH   1   2
BRANCH   1  20
ATOM     20  C   UNL     1       1.638  -1.212  -0.741  1.00  0.00     0.143 C 
BRANCH  20  21
ATOM     21  N   UNL     1       2.111  -0.640   0.525  1.00  0.00    -0.324 N 
BRANCH  21  22
ATOM     22  C   UNL     1       1.313   0.414   1.156  1.00  0.00     0.123 C 
BRANCH  22  23
ATOM     23  C   UNL     1       0.771   1.390   0.115  1.00  0.00     0.046 CG0
ATOM     24  G   UNL     1      -0.505   0.909  -0.607  1.00  0.00     0.000 G0
ENDBRANCH  22  23
ENDBRANCH  21  22
BRANCH  21  25
ATOM     25  C   UNL     1       3.441  -0.660   0.793  1.00  0.00     0.298 A 
ATOM     26  N   UNL     1       4.104  -0.006   1.727  1.00  0.00    -0.193 NA
ATOM     27  O   UNL     1       4.234  -1.459   0.006  1.00  0.00    -0.423 OA
ATOM     28  C   UNL     1       5.405  -0.397   1.559  1.00  0.00     0.113 A 
ATOM     29  C   UNL     1       5.489  -1.288   0.504  1.00  0.00     0.156 A 
ATOM     30  C   UNL     1       6.570  -0.045   2.251  1.00  0.00     0.053 A 
ATOM     31  C   UNL     1       6.663  -1.883   0.059  1.00  0.00     0.051 A 
ATOM     32  C   UNL     1       7.774  -0.625   1.831  1.00  0.00     0.043 A 
ATOM     33  C   UNL     1       7.823  -1.525   0.758  1.00  0.00     0.024 A 
ATOM     34  Cl  UNL     1       9.232  -0.220   2.655  1.00  0.00    -0.084 Cl
ENDBRANCH  21  25
ENDBRANCH  20  21
ENDBRANCH   1  20
TORSDOF 4
