REMARK SMILES CCOC(=O)Oc1c(OC)cc(C(=O)O[C@@H]2C[C@@H]3CN4CCc5c([nH]c6cc(OC)ccc56)[C@H]4C[C@@H]3[C@H](C(=O)OC)[C@H]2OC)cc1OC
REMARK SMILES IDX 7 1 8 2 11 3 12 4 45 5 46 6 6 7 4 8 5 9 3 10 2 11 1 12 9 13
REMARK SMILES IDX 10 14 47 15 48 16 13 17 14 18 15 19 16 20 17 21 42 22 18 23
REMARK SMILES IDX 37 24 19 25 36 26 20 27 35 28 21 29 34 30 22 31 24 32 23 33
REMARK SMILES IDX 25 34 33 35 26 36 32 37 27 38 31 39 28 40 43 42 44 43 38 44
REMARK SMILES IDX 39 45 40 46 41 47 29 48 30 49
REMARK H PARENT 25 41
ROOT
ATOM      1  C   UNL     1      -6.455   0.920   0.891  1.00  0.00     0.218 A 
ATOM      2  C   UNL     1      -5.157   1.453   0.967  1.00  0.00     0.166 A 
ATOM      3  C   UNL     1      -4.068   0.610   0.734  1.00  0.00     0.066 A 
ATOM      4  C   UNL     1      -4.286  -0.750   0.462  1.00  0.00     0.067 A 
ATOM      5  C   UNL     1      -5.592  -1.271   0.412  1.00  0.00     0.066 A 
ATOM      6  C   UNL     1      -6.690  -0.435   0.616  1.00  0.00     0.166 A 
ENDROOT
BRANCH   1   7
ATOM      7  O   UNL     1      -7.542   1.762   1.163  1.00  0.00    -0.387 OA
BRANCH   7   8
ATOM      8  C   UNL     1      -8.096   2.274   0.008  1.00  0.00     0.514 C 
ATOM      9  O   UNL     1      -7.749   2.043  -1.142  1.00  0.00    -0.203 OA
BRANCH   8  10
ATOM     10  O   UNL     1      -9.120   3.097   0.364  1.00  0.00    -0.434 OA
BRANCH  10  11
ATOM     11  C   UNL     1      -9.825   3.719  -0.716  1.00  0.00     0.233 C 
ATOM     12  C   UNL     1     -11.033   2.881  -1.079  1.00  0.00     0.049 C 
ENDBRANCH  10  11
ENDBRANCH   8  10
ENDBRANCH   7   8
ENDBRANCH   1   7
BRANCH   2  13
ATOM     13  O   UNL     1      -5.071   2.787   1.265  1.00  0.00    -0.493 OA
ATOM     14  C   UNL     1      -3.778   3.295   1.570  1.00  0.00     0.278 C 
ENDBRANCH   2  13
BRANCH   6  15
ATOM     15  O   UNL     1      -8.002  -0.835   0.599  1.00  0.00    -0.493 OA
ATOM     16  C   UNL     1      -8.273  -2.102  -0.011  1.00  0.00     0.278 C 
ENDBRANCH   6  15
BRANCH   4  17
ATOM     17  C   UNL     1      -3.155  -1.694   0.272  1.00  0.00     0.338 C 
ATOM     18  O   UNL     1      -3.245  -2.892   0.494  1.00  0.00    -0.246 OA
BRANCH  17  19
ATOM     19  O   UNL     1      -2.058  -1.034  -0.180  1.00  0.00    -0.456 OA
BRANCH  19  20
ATOM     20  C   UNL     1      -0.889  -1.854  -0.393  1.00  0.00     0.207 C 
ATOM     21  C   UNL     1      -0.019  -1.746   0.842  1.00  0.00     0.053 C 
ATOM     22  C   UNL     1      -0.100  -1.337  -1.600  1.00  0.00     0.173 C 
ATOM     23  C   UNL     1       1.205  -2.663   0.764  1.00  0.00     0.011 C 
ATOM     24  C   UNL     1       1.177  -2.173  -1.818  1.00  0.00     0.135 C 
ATOM     25  C   UNL     1       2.115  -2.410   1.981  1.00  0.00     0.089 C 
ATOM     26  C   UNL     1       2.003  -2.583  -0.560  1.00  0.00     0.012 C 
ATOM     27  N   UNL     1       2.722  -1.072   1.953  1.00  0.00    -0.294 NA
ATOM     28  C   UNL     1       3.373  -1.891  -0.340  1.00  0.00     0.030 C 
ATOM     29  C   UNL     1       3.610  -0.921   3.134  1.00  0.00     0.090 C 
ATOM     30  C   UNL     1       3.300  -0.698   0.625  1.00  0.00     0.104 C 
ATOM     31  C   UNL     1       4.406   0.398   3.182  1.00  0.00     0.053 C 
ATOM     32  C   UNL     1       4.627   0.002   0.753  1.00  0.00     0.037 A 
ATOM     33  C   UNL     1       5.163   0.518   1.914  1.00  0.00    -0.016 A 
ATOM     34  N   UNL     1       5.531   0.232  -0.252  1.00  0.00    -0.357 N 
ATOM     35  C   UNL     1       6.455   1.023   1.630  1.00  0.00     0.003 A 
ATOM     36  C   UNL     1       6.673   0.806   0.264  1.00  0.00     0.050 A 
ATOM     37  C   UNL     1       7.478   1.615   2.390  1.00  0.00     0.014 A 
ATOM     38  C   UNL     1       7.880   1.135  -0.364  1.00  0.00     0.073 A 
ATOM     39  C   UNL     1       8.693   1.949   1.777  1.00  0.00     0.047 A 
ATOM     40  C   UNL     1       8.897   1.703   0.416  1.00  0.00     0.120 A 
ATOM     41  H   UNL     1       5.412  -0.021  -1.219  1.00  0.00     0.166 HD
BRANCH  22  42
ATOM     42  O   UNL     1      -0.915  -1.507  -2.779  1.00  0.00    -0.377 OA
ATOM     43  C   UNL     1      -1.520  -0.296  -3.227  1.00  0.00     0.195 C 
ENDBRANCH  22  42
BRANCH  24  44
ATOM     44  C   UNL     1       2.007  -1.446  -2.862  1.00  0.00     0.311 C 
ATOM     45  O   UNL     1       2.182  -0.231  -2.872  1.00  0.00    -0.252 OA
BRANCH  44  46
ATOM     46  O   UNL     1       2.550  -2.324  -3.743  1.00  0.00    -0.469 OA
ATOM     47  C   UNL     1       3.305  -1.743  -4.811  1.00  0.00     0.282 C 
ENDBRANCH  44  46
ENDBRANCH  24  44
BRANCH  40  48
ATOM     48  O   UNL     1      10.049   1.964  -0.281  1.00  0.00    -0.497 OA
ATOM     49  C   UNL     1      11.145   2.491   0.456  1.00  0.00     0.278 C 
ENDBRANCH  40  48
ENDBRANCH  19  20
ENDBRANCH  17  19
ENDBRANCH   4  17
TORSDOF 13
