REMARK SMILES C=CC[C@@H]1/C=C(\C)C[C@H](C)C[C@H](OC)[C@H]2O[C@@](O)(C(=O)C(=O)N3CCCC[C@H]3C(=O)O[C@H](/C(C)=C/[C@@H]3CC[C@@H](O)[C@H](OC)C3)[C@@H](C)[C@@H](O)CC1=O)[C@H](C)C[C@@H]2OC
REMARK SMILES IDX 29 1 30 2 31 3 32 4 33 5 35 6 34 7 36 8 41 9 44 10 39 11
REMARK SMILES IDX 38 12 37 13 42 14 43 15 40 16 45 18 46 19 47 20 49 21 50 22
REMARK SMILES IDX 51 23 4 24 5 25 6 26 7 27 3 29 2 30 1 31 48 32 28 34 27 35
REMARK SMILES IDX 23 36 26 37 24 38 25 39 21 40 22 41 19 42 20 43 17 44 16 45
REMARK SMILES IDX 52 46 15 47 54 48 55 49 53 50 18 51 12 53 11 54 9 55 10 56
REMARK SMILES IDX 8 57 13 59 14 60 56 61 57 62
REMARK H PARENT 40 17 48 33 18 52
REMARK Flexibility Score:  163.900
ROOT
ATOM      1  C   UNL     1       1.401  -2.116   0.454  1.00  0.00     0.329 C 
ATOM      2  O   UNL     1       1.152  -2.806  -0.529  1.00  0.00    -0.250 OA
ENDROOT
BRANCH   1   3
ATOM      3  O   UNL     1       2.168  -0.992   0.446  1.00  0.00    -0.456 OA
BRANCH   3   4
ATOM      4  C   UNL     1       2.762  -0.598  -0.812  1.00  0.00     0.207 C 
BRANCH   4   5
ATOM      5  C   UNL     1       4.249  -0.332  -0.547  1.00  0.00    -0.036 C 
ATOM      6  C   UNL     1       5.182  -0.884  -1.355  1.00  0.00    -0.021 C 
ATOM      7  C   UNL     1       4.596   0.449   0.695  1.00  0.00     0.043 C 
BRANCH   6   8
ATOM      8  C   UNL     1       6.698  -0.838  -1.313  1.00  0.00     0.014 C 
ATOM      9  C   UNL     1       8.888   0.341  -0.920  1.00  0.00     0.147 C 
ATOM     10  C   UNL     1       7.362   0.497  -0.937  1.00  0.00     0.042 C 
ATOM     11  C   UNL     1       9.324  -0.699   0.143  1.00  0.00     0.143 C 
ATOM     12  C   UNL     1       8.202  -1.637   0.600  1.00  0.00     0.035 C 
ATOM     13  C   UNL     1       7.265  -2.042  -0.534  1.00  0.00     0.010 C 
BRANCH   9  14
ATOM     14  O   UNL     1       9.520   1.587  -0.598  1.00  0.00    -0.379 OA
ATOM     15  C   UNL     1       9.602   2.492  -1.691  1.00  0.00     0.195 C 
ENDBRANCH   9  14
BRANCH  11  16
ATOM     16  O   UNL     1      10.412  -1.491  -0.364  1.00  0.00    -0.390 OA
ATOM     17  H   UNL     1      10.096  -1.963  -1.155  1.00  0.00     0.211 HD
ENDBRANCH  11  16
ENDBRANCH   6   8
ENDBRANCH   4   5
BRANCH   4  18
ATOM     18  C   UNL     1       1.934   0.553  -1.476  1.00  0.00     0.060 C 
ATOM     19  C   UNL     1       0.542   0.025  -1.852  1.00  0.00     0.015 C 
BRANCH  18  20
ATOM     20  C   UNL     1       1.879   1.843  -0.616  1.00  0.00     0.128 C 
BRANCH  20  21
ATOM     21  C   UNL     1       0.634   2.728  -0.811  1.00  0.00     0.108 C 
BRANCH  21  22
ATOM     22  C   UNL     1       0.688   3.949   0.104  1.00  0.00     0.142 C 
ATOM     23  O   UNL     1       1.784   4.401   0.453  1.00  0.00    -0.299 OA
BRANCH  22  24
ATOM     24  C   UNL     1      -0.623   4.703   0.402  1.00  0.00     0.082 C 
BRANCH  24  25
ATOM     25  C   UNL     1      -1.788   3.795   0.752  1.00  0.00    -0.017 C 
ATOM     26  C   UNL     1      -3.070   3.962   0.365  1.00  0.00    -0.076 CG0
ATOM     27  C   UNL     1      -3.533   5.119  -0.485  1.00  0.00     0.039 C 
ATOM     28  G   UNL     1      -4.161   3.060   0.915  1.00  0.00     0.000 G0
ENDBRANCH  24  25
BRANCH  24  29
ATOM     29  C   UNL     1      -0.410   5.768   1.503  1.00  0.00     0.042 C 
BRANCH  29  30
ATOM     30  C   UNL     1      -0.169   5.222   2.891  1.00  0.00    -0.034 C 
ATOM     31  C   UNL     1       0.996   5.334   3.546  1.00  0.00     0.004 C 
ENDBRANCH  29  30
ENDBRANCH  24  29
ENDBRANCH  22  24
ENDBRANCH  21  22
ENDBRANCH  20  21
BRANCH  20  32
ATOM     32  O   UNL     1       3.046   2.604  -0.974  1.00  0.00    -0.392 OA
ATOM     33  H   UNL     1       3.047   3.401  -0.398  1.00  0.00     0.210 HD
ENDBRANCH  20  32
ENDBRANCH  18  20
ENDBRANCH   4  18
ENDBRANCH   3   4
ENDBRANCH   1   3
BRANCH   1  34
ATOM     34  C   UNL     1       0.899  -2.394   1.881  1.00  0.00     0.195 C 
ATOM     35  C   UNL     1       1.897  -3.230   2.678  1.00  0.00     0.037 C 
ATOM     36  N   UNL     1      -0.434  -3.006   1.822  1.00  0.00    -0.322 N 
ATOM     37  C   UNL     1       1.936  -4.713   2.316  1.00  0.00     0.005 C 
ATOM     38  C   UNL     1      -0.546  -4.461   1.850  1.00  0.00     0.121 C 
ATOM     39  C   UNL     1       0.745  -5.188   1.494  1.00  0.00     0.022 C 
BRANCH  36  40
ATOM     40  C   UNL     1      -1.530  -2.146   1.728  1.00  0.00     0.296 C 
ATOM     41  O   UNL     1      -1.460  -0.927   1.877  1.00  0.00    -0.265 OA
BRANCH  40  42
ATOM     42  C   UNL     1      -2.878  -2.766   1.387  1.00  0.00     0.279 C 
ATOM     43  O   UNL     1      -3.372  -3.590   2.155  1.00  0.00    -0.282 OA
BRANCH  42  44
ATOM     44  C   UNL     1      -3.508  -2.275   0.066  1.00  0.00     0.239 C 
ATOM     45  O   UNL     1      -4.538  -1.390   0.508  1.00  0.00    -0.334 OA
ATOM     46  C   UNL     1      -4.040  -3.502  -0.730  1.00  0.00     0.057 C 
ATOM     47  C   UNL     1      -5.541  -1.081  -0.459  1.00  0.00     0.180 C 
ATOM     48  C   UNL     1      -5.561  -3.635  -0.574  1.00  0.00     0.044 C 
ATOM     49  C   UNL     1      -6.310  -2.344  -0.913  1.00  0.00     0.150 C 
ATOM     50  C   UNL     1      -3.620  -3.521  -2.206  1.00  0.00     0.014 C 
BRANCH  44  51
ATOM     51  O   UNL     1      -2.557  -1.558  -0.700  1.00  0.00    -0.359 OA
ATOM     52  H   UNL     1      -3.053  -1.000  -1.315  1.00  0.00     0.214 HD
ENDBRANCH  44  51
BRANCH  47  53
ATOM     53  C   UNL     1      -6.509  -0.010   0.122  1.00  0.00     0.149 C 
BRANCH  53  54
ATOM     54  C   UNL     1      -5.784   1.167   0.806  1.00  0.00     0.038 C 
BRANCH  54  55
ATOM     55  C   UNL     1      -4.701   1.926   0.001  1.00  0.00    -0.008 C 
ATOM     56  C   UNL     1      -5.253   2.447  -1.324  1.00  0.00     0.008 C 
BRANCH  55  57
ATOM     57  C   UNL     1      -4.161   3.060   0.915  1.00  0.00     0.033 CG0
ATOM     58  G   UNL     1      -3.070   3.962   0.365  1.00  0.00     0.000 G0
ENDBRANCH  55  57
ENDBRANCH  54  55
ENDBRANCH  53  54
BRANCH  53  59
ATOM     59  O   UNL     1      -7.362  -0.649   1.099  1.00  0.00    -0.379 OA
ATOM     60  C   UNL     1      -8.575   0.048   1.347  1.00  0.00     0.195 C 
ENDBRANCH  53  59
ENDBRANCH  47  53
BRANCH  49  61
ATOM     61  O   UNL     1      -6.473  -2.273  -2.344  1.00  0.00    -0.379 OA
ATOM     62  C   UNL     1      -7.839  -2.199  -2.733  1.00  0.00     0.195 C 
ENDBRANCH  49  61
ENDBRANCH  42  44
ENDBRANCH  40  42
ENDBRANCH  36  40
ENDBRANCH   1  34
TORSDOF 10
