REMARK SMILES O=C(O)c1ccc2nc(-c3cc(Cl)cc(Cl)c3)oc2c1
REMARK SMILES IDX 4 1 20 2 19 3 7 4 6 5 5 6 8 7 9 8 18 9 2 10 1 11 3 12 10 14
REMARK SMILES IDX 11 15 17 16 12 17 15 18 14 19 13 20 16 21
REMARK H PARENT 3 13
ROOT
ATOM      1  C   UNL     1       3.539   0.283  -0.240  1.00  0.00     0.063 A 
ATOM      2  C   UNL     1       2.388   0.963   0.194  1.00  0.00     0.065 A 
ATOM      3  C   UNL     1       1.185   0.300  -0.012  1.00  0.00     0.156 A 
ATOM      4  C   UNL     1       1.057  -0.948  -0.598  1.00  0.00     0.110 A 
ATOM      5  C   UNL     1       2.208  -1.618  -1.027  1.00  0.00     0.033 A 
ATOM      6  C   UNL     1       3.450  -0.987  -0.840  1.00  0.00     0.018 A 
ATOM      7  N   UNL     1      -0.266  -1.305  -0.646  1.00  0.00    -0.209 NA
ATOM      8  C   UNL     1      -0.891  -0.279  -0.096  1.00  0.00     0.227 A 
ATOM      9  O   UNL     1      -0.065   0.737   0.315  1.00  0.00    -0.436 OA
ENDROOT
BRANCH   1  10
ATOM     10  C   UNL     1       4.846   0.958  -0.038  1.00  0.00     0.335 C 
ATOM     11  O   UNL     1       5.009   2.051   0.471  1.00  0.00    -0.246 OA
BRANCH  10  12
ATOM     12  O   UNL     1       5.884   0.231  -0.484  1.00  0.00    -0.478 OA
ATOM     13  H   UNL     1       6.666   0.790  -0.289  1.00  0.00     0.297 HD
ENDBRANCH  10  12
ENDBRANCH   1  10
BRANCH   8  14
ATOM     14  C   UNL     1      -2.322  -0.093   0.127  1.00  0.00     0.040 A 
ATOM     15  C   UNL     1      -3.218  -1.097  -0.270  1.00  0.00     0.034 A 
ATOM     16  C   UNL     1      -2.835   1.065   0.730  1.00  0.00     0.034 A 
ATOM     17  C   UNL     1      -4.590  -0.942  -0.068  1.00  0.00     0.043 A 
ATOM     18  C   UNL     1      -4.210   1.208   0.927  1.00  0.00     0.043 A 
ATOM     19  C   UNL     1      -5.093   0.209   0.531  1.00  0.00     0.041 A 
ATOM     20  Cl  UNL     1      -5.671  -2.186  -0.563  1.00  0.00    -0.084 Cl
ATOM     21  Cl  UNL     1      -4.818   2.637   1.669  1.00  0.00    -0.084 Cl
ENDBRANCH   8  14
TORSDOF 3
