REMARK SMILES CC(C)OC(=O)CCC/C=C\C[C@@H]1[C@@H](/C=C/C(F)(F)COc2ccccc2)[C@H](O)C[C@@H]1O
REMARK SMILES IDX 10 1 11 2 9 3 8 4 7 5 5 6 6 7 4 8 2 9 1 10 3 11 12 12 13 13
REMARK SMILES IDX 31 14 14 15 30 16 28 17 32 18 15 20 16 21 17 22 18 23 19 24
REMARK SMILES IDX 20 25 21 26 22 27 23 28 27 29 24 30 26 31 25 32 29 33
REMARK H PARENT 32 19 29 34
ROOT
ATOM      1  C   UNL     1       2.741   0.174  -1.852  1.00  0.00    -0.031 C 
ATOM      2  C   UNL     1       1.398   0.155  -1.847  1.00  0.00    -0.031 C 
ENDROOT
BRANCH   1   3
ATOM      3  C   UNL     1       3.654   0.410  -0.681  1.00  0.00     0.027 C 
BRANCH   3   4
ATOM      4  C   UNL     1       4.533  -0.816  -0.416  1.00  0.00     0.016 C 
BRANCH   4   5
ATOM      5  C   UNL     1       5.338  -0.688   0.875  1.00  0.00     0.123 C 
BRANCH   5   6
ATOM      6  C   UNL     1       6.296   0.475   0.853  1.00  0.00     0.306 C 
ATOM      7  O   UNL     1       6.243   1.420   1.630  1.00  0.00    -0.252 OA
BRANCH   6   8
ATOM      8  O   UNL     1       7.226   0.313  -0.126  1.00  0.00    -0.463 OA
BRANCH   8   9
ATOM      9  C   UNL     1       8.166   1.393  -0.285  1.00  0.00     0.170 C 
ATOM     10  C   UNL     1       9.405   0.820  -0.966  1.00  0.00     0.052 C 
ATOM     11  C   UNL     1       7.543   2.486  -1.148  1.00  0.00     0.052 C 
ENDBRANCH   8   9
ENDBRANCH   6   8
ENDBRANCH   5   6
ENDBRANCH   4   5
ENDBRANCH   3   4
ENDBRANCH   1   3
BRANCH   2  12
ATOM     12  C   UNL     1       0.483   0.399  -0.677  1.00  0.00     0.034 C 
BRANCH  12  13
ATOM     13  C   UNL     1      -0.215  -0.882  -0.204  1.00  0.00     0.031 C 
ATOM     14  C   UNL     1       0.705  -1.931   0.440  1.00  0.00     0.121 C 
ATOM     15  C   UNL     1      -1.244  -0.606   0.917  1.00  0.00     0.046 C 
ATOM     16  C   UNL     1      -0.298  -2.878   1.093  1.00  0.00     0.064 C 
ATOM     17  C   UNL     1      -1.346  -1.939   1.699  1.00  0.00     0.124 C 
BRANCH  14  18
ATOM     18  O   UNL     1       1.563  -1.365   1.427  1.00  0.00    -0.393 OA
ATOM     19  H   UNL     1       1.091  -1.360   2.283  1.00  0.00     0.210 HD
ENDBRANCH  14  18
BRANCH  15  20
ATOM     20  C   UNL     1      -2.598  -0.066   0.518  1.00  0.00    -0.019 C 
ATOM     21  C   UNL     1      -3.247  -0.268  -0.643  1.00  0.00     0.048 C 
BRANCH  21  22
ATOM     22  C   UNL     1      -4.577   0.343  -1.014  1.00  0.00     0.299 C 
ATOM     23  F   UNL     1      -4.472   0.903  -2.249  1.00  0.00    -0.198 F 
ATOM     24  F   UNL     1      -4.885   1.356  -0.160  1.00  0.00    -0.198 F 
BRANCH  22  25
ATOM     25  C   UNL     1      -5.699  -0.706  -1.014  1.00  0.00     0.310 C 
BRANCH  25  26
ATOM     26  O   UNL     1      -6.937  -0.201  -1.530  1.00  0.00    -0.487 OA
BRANCH  26  27
ATOM     27  C   UNL     1      -7.850   0.331  -0.665  1.00  0.00     0.119 A 
ATOM     28  C   UNL     1      -9.089   0.625  -1.244  1.00  0.00     0.046 A 
ATOM     29  C   UNL     1      -7.652   0.608   0.688  1.00  0.00     0.046 A 
ATOM     30  C   UNL     1     -10.121   1.178  -0.484  1.00  0.00     0.004 A 
ATOM     31  C   UNL     1      -8.685   1.164   1.451  1.00  0.00     0.004 A 
ATOM     32  C   UNL     1      -9.919   1.446   0.867  1.00  0.00     0.000 A 
ENDBRANCH  26  27
ENDBRANCH  25  26
ENDBRANCH  22  25
ENDBRANCH  21  22
ENDBRANCH  15  20
BRANCH  17  33
ATOM     33  O   UNL     1      -1.004  -1.712   3.069  1.00  0.00    -0.392 OA
ATOM     34  H   UNL     1      -1.699  -1.148   3.452  1.00  0.00     0.210 HD
ENDBRANCH  17  33
ENDBRANCH  12  13
ENDBRANCH   2  12
TORSDOF 15
