REMARK SMILES Cc1cc(N2CCN([C@@H]3CN[C@H](C(=O)N4CCSC4)C3)CC2)n(-c2ccccc2)n1
REMARK SMILES IDX 5 1 6 2 7 3 8 4 21 5 22 6 4 7 2 8 30 9 3 10 23 11 1 12 24 13
REMARK SMILES IDX 25 14 29 15 26 16 28 17 27 18 9 19 10 20 20 21 11 22 12 23
REMARK SMILES IDX 13 25 14 26 15 27 16 28 19 29 17 30 18 31
REMARK H PARENT 11 24
ROOT
ATOM      1  N   UNL     1      -2.167  -0.605   0.007  1.00  0.00    -0.354 N 
ATOM      2  C   UNL     1      -1.247  -1.679  -0.444  1.00  0.00     0.133 C 
ATOM      3  C   UNL     1       0.206  -1.397   0.000  1.00  0.00     0.106 C 
ATOM      4  N   UNL     1       0.352  -1.403   1.469  1.00  0.00    -0.296 NA
ATOM      5  C   UNL     1      -0.836  -0.811   2.133  1.00  0.00     0.106 C 
ATOM      6  C   UNL     1      -1.729   0.085   1.244  1.00  0.00     0.133 C 
ENDROOT
BRANCH   1   7
ATOM      7  C   UNL     1      -3.508  -0.892  -0.069  1.00  0.00     0.132 A 
ATOM      8  C   UNL     1      -5.553  -1.705   0.215  1.00  0.00     0.062 A 
ATOM      9  N   UNL     1      -5.713  -0.667  -0.603  1.00  0.00    -0.171 NA
ATOM     10  C   UNL     1      -4.207  -1.887   0.574  1.00  0.00     0.072 A 
ATOM     11  N   UNL     1      -4.452  -0.174  -0.823  1.00  0.00    -0.217 N 
ATOM     12  C   UNL     1      -6.724  -2.509   0.632  1.00  0.00     0.069 C 
BRANCH  11  13
ATOM     13  C   UNL     1      -4.284   0.911  -1.743  1.00  0.00     0.067 A 
ATOM     14  C   UNL     1      -3.025   1.400  -2.104  1.00  0.00     0.028 A 
ATOM     15  C   UNL     1      -5.423   1.497  -2.322  1.00  0.00     0.028 A 
ATOM     16  C   UNL     1      -2.909   2.441  -3.028  1.00  0.00     0.002 A 
ATOM     17  C   UNL     1      -5.298   2.534  -3.250  1.00  0.00     0.002 A 
ATOM     18  C   UNL     1      -4.043   3.001  -3.606  1.00  0.00     0.000 A 
ENDBRANCH  11  13
ENDBRANCH   1   7
BRANCH   4  19
ATOM     19  C   UNL     1       1.620  -0.869   1.975  1.00  0.00     0.072 C 
ATOM     20  C   UNL     1       1.947   0.614   1.758  1.00  0.00     0.100 C 
ATOM     21  C   UNL     1       2.891  -1.585   1.493  1.00  0.00     0.049 C 
ATOM     22  N   UNL     1       3.374   0.697   2.128  1.00  0.00    -0.304 NA
ATOM     23  C   UNL     1       3.977  -0.495   1.475  1.00  0.00     0.145 C 
ATOM     24  H   UNL     1       3.439   0.560   3.137  1.00  0.00     0.123 HD
BRANCH  23  25
ATOM     25  C   UNL     1       4.425  -0.109   0.036  1.00  0.00     0.240 C 
ATOM     26  O   UNL     1       3.773  -0.433  -0.957  1.00  0.00    -0.273 OA
BRANCH  25  27
ATOM     27  N   UNL     1       5.602   0.614  -0.080  1.00  0.00    -0.331 N 
ATOM     28  C   UNL     1       6.050   1.061  -1.396  1.00  0.00     0.131 C 
ATOM     29  C   UNL     1       6.177   1.395   0.995  1.00  0.00     0.189 C 
ATOM     30  C   UNL     1       7.540   1.329  -1.294  1.00  0.00     0.093 C 
ATOM     31  S   UNL     1       7.740   2.059   0.354  1.00  0.00    -0.139 SA
ENDBRANCH  25  27
ENDBRANCH  23  25
ENDBRANCH   4  19
TORSDOF 5
