REMARK SMILES COc1cc([C@@H]2c3cc4c(cc3[C@@H](O[C@@H]3O[C@@H]5CO[C@@H](c6cccs6)O[C@H]5[C@H](O)[C@H]3O)[C@H]3COC(=O)[C@H]23)OCO4)cc(OC)c1O
REMARK SMILES IDX 6 1 37 2 32 3 33 4 34 5 35 6 36 7 13 8 12 9 11 10 10 11 9 12
REMARK SMILES IDX 40 13 39 14 38 15 8 16 7 17 5 18 3 19 4 20 45 21 42 22 41 23
REMARK SMILES IDX 2 24 1 25 46 26 43 28 44 29 14 30 15 31 16 32 30 33 17 34
REMARK SMILES IDX 28 35 18 36 27 37 19 38 26 39 20 40 31 41 29 43 21 45 22 46
REMARK SMILES IDX 25 47 23 48 24 49
REMARK H PARENT 46 27 31 42 29 44
ROOT
ATOM      1  C   UNL     1      -3.276   0.989  -0.097  1.00  0.00     0.065 C 
ATOM      2  C   UNL     1      -2.438   0.736   1.155  1.00  0.00     0.120 C 
ATOM      3  C   UNL     1      -1.414  -0.356   0.903  1.00  0.00     0.076 C 
ATOM      4  C   UNL     1      -1.012  -0.697   2.315  1.00  0.00     0.240 C 
ATOM      5  O   UNL     1      -2.250  -0.640   3.040  1.00  0.00    -0.465 OA
ATOM      6  C   UNL     1      -3.097   0.239   2.408  1.00  0.00     0.310 C 
ATOM      7  O   UNL     1      -4.168   0.605   2.860  1.00  0.00    -0.252 OA
ATOM      8  C   UNL     1      -0.334   0.137  -0.051  1.00  0.00     0.159 C 
ATOM      9  C   UNL     1      -0.968   0.785  -1.279  1.00  0.00    -0.011 A 
ATOM     10  C   UNL     1      -0.179   0.961  -2.431  1.00  0.00     0.057 A 
ATOM     11  C   UNL     1      -0.737   1.584  -3.527  1.00  0.00     0.166 A 
ATOM     12  C   UNL     1      -2.032   2.035  -3.525  1.00  0.00     0.166 A 
ATOM     13  O   UNL     1      -2.381   2.613  -4.702  1.00  0.00    -0.454 OA
ATOM     14  C   UNL     1      -1.145   2.505  -5.436  1.00  0.00     0.468 C 
ATOM     15  O   UNL     1      -0.107   1.818  -4.708  1.00  0.00    -0.454 OA
ATOM     16  C   UNL     1      -2.850   1.880  -2.430  1.00  0.00     0.055 A 
ATOM     17  C   UNL     1      -2.327   1.243  -1.285  1.00  0.00    -0.030 A 
ENDROOT
BRANCH   1  18
ATOM     18  C   UNL     1      -4.330  -0.082  -0.408  1.00  0.00    -0.032 A 
ATOM     19  C   UNL     1      -5.082  -2.099  -1.558  1.00  0.00     0.164 A 
ATOM     20  C   UNL     1      -4.082  -1.167  -1.271  1.00  0.00     0.055 A 
ATOM     21  C   UNL     1      -6.338  -1.957  -0.957  1.00  0.00     0.200 A 
ATOM     22  C   UNL     1      -6.613  -0.911  -0.073  1.00  0.00     0.164 A 
ATOM     23  C   UNL     1      -5.607   0.028   0.181  1.00  0.00     0.055 A 
BRANCH  19  24
ATOM     24  O   UNL     1      -4.961  -3.175  -2.403  1.00  0.00    -0.493 OA
ATOM     25  C   UNL     1      -3.701  -3.362  -3.040  1.00  0.00     0.278 C 
ENDBRANCH  19  24
BRANCH  21  26
ATOM     26  O   UNL     1      -7.316  -2.879  -1.249  1.00  0.00    -0.502 OA
ATOM     27  H   UNL     1      -6.917  -3.467  -1.918  1.00  0.00     0.293 HD
ENDBRANCH  21  26
BRANCH  22  28
ATOM     28  O   UNL     1      -7.870  -0.884   0.469  1.00  0.00    -0.493 OA
ATOM     29  C   UNL     1      -8.076  -0.025   1.584  1.00  0.00     0.278 C 
ENDBRANCH  22  28
ENDBRANCH   1  18
BRANCH   8  30
ATOM     30  O   UNL     1       0.440   1.146   0.602  1.00  0.00    -0.341 OA
BRANCH  30  31
ATOM     31  C   UNL     1       1.850   0.926   0.492  1.00  0.00     0.282 C 
ATOM     32  O   UNL     1       2.229  -0.173   1.324  1.00  0.00    -0.341 OA
ATOM     33  C   UNL     1       2.558   2.232   0.910  1.00  0.00     0.202 C 
ATOM     34  C   UNL     1       3.630  -0.418   1.217  1.00  0.00     0.179 C 
ATOM     35  C   UNL     1       4.080   2.031   0.945  1.00  0.00     0.180 C 
ATOM     36  C   UNL     1       4.055  -1.631   2.040  1.00  0.00     0.199 C 
ATOM     37  C   UNL     1       4.438   0.770   1.732  1.00  0.00     0.184 C 
ATOM     38  O   UNL     1       5.463  -1.820   1.932  1.00  0.00    -0.345 OA
ATOM     39  O   UNL     1       5.831   0.493   1.587  1.00  0.00    -0.339 OA
ATOM     40  C   UNL     1       6.197  -0.663   2.347  1.00  0.00     0.292 C 
BRANCH  33  41
ATOM     41  O   UNL     1       2.224   3.272  -0.024  1.00  0.00    -0.385 OA
ATOM     42  H   UNL     1       1.253   3.374   0.019  1.00  0.00     0.211 HD
ENDBRANCH  33  41
BRANCH  35  43
ATOM     43  O   UNL     1       4.713   3.155   1.578  1.00  0.00    -0.387 OA
ATOM     44  H   UNL     1       5.673   2.978   1.538  1.00  0.00     0.211 HD
ENDBRANCH  35  43
BRANCH  40  45
ATOM     45  C   UNL     1       7.651  -0.929   2.063  1.00  0.00     0.060 A 
ATOM     46  C   UNL     1       8.264  -2.089   1.619  1.00  0.00     0.021 A 
ATOM     47  S   UNL     1       8.820   0.313   2.324  1.00  0.00    -0.144 S 
ATOM     48  C   UNL     1       9.673  -1.945   1.456  1.00  0.00     0.012 A 
ATOM     49  C   UNL     1      10.097  -0.667   1.758  1.00  0.00     0.065 A 
ENDBRANCH  40  45
ENDBRANCH  30  31
ENDBRANCH   8  30
TORSDOF 9
