REMARK SMILES CN1CCC(COc2cnc(-c3cccc(Cn4nc(-c5cccc(C#N)c5)ccc4=O)c3)nc2)CC1
REMARK SMILES IDX 8 1 9 2 10 3 11 4 34 5 35 6 7 7 6 8 5 9 2 10 3 11 37 12 4 13
REMARK SMILES IDX 36 14 1 15 12 16 13 17 33 18 14 19 16 20 15 21 17 22 18 23
REMARK SMILES IDX 31 24 19 25 32 26 30 27 20 28 29 29 21 30 22 31 28 32 23 33
REMARK SMILES IDX 25 34 24 35 26 36 27 37
REMARK H PARENT
ROOT
ATOM      1  C   UNL     1      -3.403   1.627   1.468  1.00  0.00     0.155 A 
ATOM      2  C   UNL     1      -2.711   1.594   0.280  1.00  0.00     0.161 A 
ATOM      3  N   UNL     1      -1.373   1.765   0.178  1.00  0.00    -0.233 NA
ATOM      4  C   UNL     1      -0.694   1.970   1.325  1.00  0.00     0.159 A 
ATOM      5  N   UNL     1      -1.272   2.005   2.543  1.00  0.00    -0.233 NA
ATOM      6  C   UNL     1      -2.610   1.825   2.578  1.00  0.00     0.161 A 
ENDROOT
BRANCH   1   7
ATOM      7  O   UNL     1      -4.731   1.441   1.676  1.00  0.00    -0.490 OA
BRANCH   7   8
ATOM      8  C   UNL     1      -5.633   1.664   0.589  1.00  0.00     0.233 C 
BRANCH   8   9
ATOM      9  C   UNL     1      -6.361   0.366   0.222  1.00  0.00     0.029 C 
ATOM     10  N   UNL     1      -7.588  -1.805  -1.005  1.00  0.00    -0.306 NA
ATOM     11  C   UNL     1      -7.790  -0.544  -1.714  1.00  0.00     0.084 C 
ATOM     12  C   UNL     1      -6.180  -2.011  -0.638  1.00  0.00     0.084 C 
ATOM     13  C   UNL     1      -7.494   0.642  -0.787  1.00  0.00     0.022 C 
ATOM     14  C   UNL     1      -5.423  -0.712  -0.326  1.00  0.00     0.022 C 
ATOM     15  C   UNL     1      -8.101  -2.942  -1.764  1.00  0.00     0.105 C 
ENDBRANCH   8   9
ENDBRANCH   7   8
ENDBRANCH   1   7
BRANCH   4  16
ATOM     16  C   UNL     1       0.768   2.167   1.244  1.00  0.00     0.019 A 
ATOM     17  C   UNL     1       1.528   2.491   2.384  1.00  0.00     0.012 A 
ATOM     18  C   UNL     1       1.463   2.039   0.024  1.00  0.00     0.017 A 
ATOM     19  C   UNL     1       2.912   2.676   2.314  1.00  0.00     0.001 A 
ATOM     20  C   UNL     1       2.854   2.233  -0.064  1.00  0.00    -0.026 A 
ATOM     21  C   UNL     1       3.572   2.544   1.096  1.00  0.00     0.006 A 
BRANCH  20  22
ATOM     22  C   UNL     1       3.570   2.071  -1.386  1.00  0.00     0.184 C 
BRANCH  22  23
ATOM     23  N   UNL     1       4.031   0.704  -1.598  1.00  0.00    -0.225 N 
ATOM     24  C   UNL     1       3.251  -0.172  -2.338  1.00  0.00     0.267 C 
ATOM     25  N   UNL     1       5.221   0.355  -0.989  1.00  0.00    -0.169 NA
ATOM     26  O   UNL     1       2.195   0.113  -2.898  1.00  0.00    -0.268 OA
ATOM     27  C   UNL     1       3.758  -1.555  -2.442  1.00  0.00     0.075 C 
ATOM     28  C   UNL     1       5.634  -0.867  -1.118  1.00  0.00     0.091 C 
ATOM     29  C   UNL     1       4.903  -1.915  -1.862  1.00  0.00     0.036 C 
BRANCH  28  30
ATOM     30  C   UNL     1       6.910  -1.268  -0.462  1.00  0.00     0.003 A 
ATOM     31  C   UNL     1       7.229  -0.699   0.779  1.00  0.00     0.010 A 
ATOM     32  C   UNL     1       7.802  -2.166  -1.062  1.00  0.00     0.029 A 
ATOM     33  C   UNL     1       8.415  -1.043   1.428  1.00  0.00     0.002 A 
ATOM     34  C   UNL     1       8.993  -2.510  -0.409  1.00  0.00     0.053 A 
ATOM     35  C   UNL     1       9.294  -1.951   0.838  1.00  0.00     0.019 A 
ATOM     36  C   UNL     1       9.903  -3.434  -1.020  1.00  0.00     0.099 C 
ATOM     37  N   UNL     1      10.629  -4.190  -1.519  1.00  0.00    -0.192 NA
ENDBRANCH  28  30
ENDBRANCH  22  23
ENDBRANCH  20  22
ENDBRANCH   4  16
TORSDOF 7
