REMARK SMILES COc1cc2nc(N3CCN(C(=O)C4CCCO4)CC3)nc(N)c2cc1OC
REMARK SMILES IDX 3 1 4 2 5 3 24 4 25 5 26 6 22 7 21 8 7 9 6 10 2 11 1 12
REMARK SMILES IDX 27 13 28 14 23 15 8 18 9 19 20 20 10 21 19 22 11 23 12 24
REMARK SMILES IDX 13 25 14 26 15 27 18 28 16 29 17 30
REMARK H PARENT 23 16 23 17
ROOT
ATOM      1  C   UNL     1      -5.284  -0.338   0.845  1.00  0.00     0.162 A 
ATOM      2  C   UNL     1      -3.985  -0.856   0.768  1.00  0.00     0.079 A 
ATOM      3  C   UNL     1      -2.959  -0.178   0.121  1.00  0.00     0.082 A 
ATOM      4  C   UNL     1      -3.242   1.047  -0.473  1.00  0.00     0.047 A 
ATOM      5  C   UNL     1      -4.546   1.594  -0.396  1.00  0.00     0.064 A 
ATOM      6  C   UNL     1      -5.567   0.908   0.262  1.00  0.00     0.161 A 
ATOM      7  C   UNL     1      -2.155   1.644  -1.112  1.00  0.00     0.137 A 
ATOM      8  N   UNL     1      -0.928   1.111  -1.128  1.00  0.00    -0.195 NA
ATOM      9  C   UNL     1      -0.742  -0.068  -0.519  1.00  0.00     0.228 A 
ATOM     10  N   UNL     1      -1.739  -0.725   0.093  1.00  0.00    -0.213 NA
ENDROOT
BRANCH   1  11
ATOM     11  O   UNL     1      -6.334  -0.965   1.471  1.00  0.00    -0.493 OA
ATOM     12  C   UNL     1      -6.091  -2.237   2.054  1.00  0.00     0.278 C 
ENDBRANCH   1  11
BRANCH   6  13
ATOM     13  O   UNL     1      -6.857   1.358   0.383  1.00  0.00    -0.493 OA
ATOM     14  C   UNL     1      -7.152   2.659  -0.103  1.00  0.00     0.278 C 
ENDBRANCH   6  13
BRANCH   7  15
ATOM     15  N   UNL     1      -2.275   2.870  -1.781  1.00  0.00    -0.383 N 
ATOM     16  H   UNL     1      -2.989   2.821  -2.499  1.00  0.00     0.158 HD
ATOM     17  H   UNL     1      -1.363   3.068  -2.187  1.00  0.00     0.158 HD
ENDBRANCH   7  15
BRANCH   9  18
ATOM     18  N   UNL     1       0.529  -0.653  -0.557  1.00  0.00    -0.337 N 
ATOM     19  C   UNL     1       1.617   0.321  -0.710  1.00  0.00     0.141 C 
ATOM     20  C   UNL     1       0.755  -1.644   0.507  1.00  0.00     0.141 C 
ATOM     21  C   UNL     1       2.980  -0.378  -0.876  1.00  0.00     0.141 C 
ATOM     22  C   UNL     1       2.106  -2.350   0.317  1.00  0.00     0.141 C 
ATOM     23  N   UNL     1       3.230  -1.426   0.119  1.00  0.00    -0.337 N 
ATOM     24  C   UNL     1       4.499  -1.931   0.396  1.00  0.00     0.251 C 
ATOM     25  O   UNL     1       4.643  -3.000   1.002  1.00  0.00    -0.272 OA
BRANCH  24  26
ATOM     26  C   UNL     1       5.760  -1.115   0.030  1.00  0.00     0.207 C 
ATOM     27  C   UNL     1       5.974   0.063   0.965  1.00  0.00     0.044 C 
ATOM     28  O   UNL     1       5.858  -0.594  -1.299  1.00  0.00    -0.368 OA
ATOM     29  C   UNL     1       6.970   0.889   0.190  1.00  0.00     0.032 C 
ATOM     30  C   UNL     1       6.531   0.673  -1.243  1.00  0.00     0.161 C 
ENDBRANCH  24  26
ENDBRANCH   9  18
TORSDOF 5
