REMARK SMILES CCCCCCCCCCC(=O)O[C@H]1CC[C@H]2[C@@H]3CCC4=CC(=O)CC[C@]4(C)[C@H]3CC[C@]12C
REMARK SMILES IDX 7 1 6 2 5 3 4 4 3 5 2 6 1 7 8 8 9 9 10 10 11 11 12 12 13 13
REMARK SMILES IDX 14 14 15 15 32 16 16 17 31 18 17 19 30 20 18 21 29 22 19 23
REMARK SMILES IDX 27 24 20 25 26 26 21 27 25 28 22 29 23 30 24 31 33 32 28 33
REMARK H PARENT
ROOT
ATOM      1  C   UNL     1       4.941  -0.363   0.296  1.00  0.00     0.000 C 
ENDROOT
BRANCH   1   2
ATOM      2  C   UNL     1       6.325  -0.626  -0.303  1.00  0.00     0.000 C 
BRANCH   2   3
ATOM      3  C   UNL     1       7.426   0.007   0.555  1.00  0.00    -0.000 C 
BRANCH   3   4
ATOM      4  C   UNL     1       8.841  -0.321   0.067  1.00  0.00    -0.000 C 
BRANCH   4   5
ATOM      5  C   UNL     1       9.186   0.332  -1.274  1.00  0.00    -0.000 C 
BRANCH   5   6
ATOM      6  C   UNL     1      10.598  -0.003  -1.762  1.00  0.00    -0.003 C 
ATOM      7  C   UNL     1      11.700   0.569  -0.883  1.00  0.00     0.004 C 
ENDBRANCH   5   6
ENDBRANCH   4   5
ENDBRANCH   3   4
ENDBRANCH   2   3
ENDBRANCH   1   2
BRANCH   1   8
ATOM      8  C   UNL     1       3.842  -1.045  -0.523  1.00  0.00     0.001 C 
BRANCH   8   9
ATOM      9  C   UNL     1       2.431  -0.732  -0.021  1.00  0.00     0.012 C 
BRANCH   9  10
ATOM     10  C   UNL     1       2.169  -1.227   1.400  1.00  0.00     0.123 C 
BRANCH  10  11
ATOM     11  C   UNL     1       0.711  -1.117   1.774  1.00  0.00     0.306 C 
ATOM     12  O   UNL     1       0.038  -2.057   2.172  1.00  0.00    -0.252 OA
BRANCH  11  13
ATOM     13  O   UNL     1       0.278   0.165   1.638  1.00  0.00    -0.462 OA
BRANCH  13  14
ATOM     14  C   UNL     1      -1.096   0.406   1.952  1.00  0.00     0.182 C 
ATOM     15  C   UNL     1      -1.271   1.889   2.352  1.00  0.00     0.046 C 
ATOM     16  C   UNL     1      -2.051   0.241   0.745  1.00  0.00     0.008 C 
ATOM     17  C   UNL     1      -2.625   2.342   1.781  1.00  0.00     0.008 C 
ATOM     18  C   UNL     1      -2.529  -1.194   0.481  1.00  0.00     0.011 C 
ATOM     19  C   UNL     1      -3.256   1.052   1.265  1.00  0.00     0.002 C 
ATOM     20  C   UNL     1      -3.720  -1.236  -0.494  1.00  0.00     0.005 C 
ATOM     21  C   UNL     1      -4.396   1.140   0.244  1.00  0.00    -0.003 C 
ATOM     22  C   UNL     1      -4.894  -0.316  -0.074  1.00  0.00     0.002 C 
ATOM     23  C   UNL     1      -5.542   2.039   0.744  1.00  0.00     0.008 C 
ATOM     24  C   UNL     1      -6.106  -0.308  -1.076  1.00  0.00    -0.008 C 
ATOM     25  C   UNL     1      -6.746   2.027  -0.200  1.00  0.00     0.032 C 
ATOM     26  C   UNL     1      -6.698  -1.723  -1.341  1.00  0.00     0.019 C 
ATOM     27  C   UNL     1      -7.169   0.599  -0.439  1.00  0.00    -0.060 C 
ATOM     28  C   UNL     1      -7.554  -2.252  -0.204  1.00  0.00     0.081 C 
ATOM     29  C   UNL     1      -8.355   0.165   0.024  1.00  0.00     0.047 C 
ATOM     30  C   UNL     1      -8.674  -1.281   0.074  1.00  0.00     0.155 C 
ATOM     31  O   UNL     1      -9.795  -1.644   0.423  1.00  0.00    -0.295 OA
ATOM     32  C   UNL     1      -1.396   0.807  -0.541  1.00  0.00     0.015 C 
ATOM     33  C   UNL     1      -5.697   0.232  -2.470  1.00  0.00     0.016 C 
ENDBRANCH  13  14
ENDBRANCH  11  13
ENDBRANCH  10  11
ENDBRANCH   9  10
ENDBRANCH   8   9
ENDBRANCH   1   8
TORSDOF 11
