REMARK SMILES CC(C)=CC1C(C(=O)OCN2C(=O)C3=C(CCCC3)C2=O)C1(C)C
REMARK SMILES IDX 7 1 8 2 6 3 5 4 22 5 23 6 24 7 4 8 2 9 1 10 3 11 9 12 10 13
REMARK SMILES IDX 11 14 12 15 20 16 13 17 14 18 15 19 21 20 19 21 16 22 18 23
REMARK SMILES IDX 17 24
REMARK H PARENT
ROOT
ATOM      1  C   UNL     1       0.923  -1.423  -1.226  1.00  0.00     0.311 C 
ATOM      2  O   UNL     1       1.140  -1.846  -2.351  1.00  0.00    -0.252 OA
ENDROOT
BRANCH   1   3
ATOM      3  C   UNL     1       1.999  -1.231  -0.229  1.00  0.00     0.113 C 
ATOM      4  C   UNL     1       3.267  -0.499  -0.622  1.00  0.00     0.033 C 
ATOM      5  C   UNL     1       2.306   0.137   0.369  1.00  0.00    -0.014 C 
ATOM      6  C   UNL     1       1.555   1.358  -0.108  1.00  0.00     0.012 C 
ATOM      7  C   UNL     1       2.630   0.177   1.843  1.00  0.00     0.012 C 
BRANCH   4   8
ATOM      8  C   UNL     1       4.563  -1.032  -0.179  1.00  0.00    -0.023 C 
ATOM      9  C   UNL     1       5.683  -0.331   0.086  1.00  0.00    -0.080 C 
ATOM     10  C   UNL     1       5.780   1.165  -0.030  1.00  0.00     0.039 C 
ATOM     11  C   UNL     1       6.948  -1.015   0.527  1.00  0.00     0.039 C 
ENDBRANCH   4   8
ENDBRANCH   1   3
BRANCH   1  12
ATOM     12  O   UNL     1      -0.289  -1.098  -0.715  1.00  0.00    -0.443 OA
BRANCH  12  13
ATOM     13  C   UNL     1      -1.338  -1.221  -1.671  1.00  0.00     0.366 C 
BRANCH  13  14
ATOM     14  N   UNL     1      -2.536  -0.707  -1.068  1.00  0.00    -0.240 N 
ATOM     15  C   UNL     1      -3.429  -1.455  -0.372  1.00  0.00     0.259 C 
ATOM     16  C   UNL     1      -2.878   0.607  -1.053  1.00  0.00     0.259 C 
ATOM     17  O   UNL     1      -3.428  -2.654  -0.165  1.00  0.00    -0.269 OA
ATOM     18  C   UNL     1      -4.452  -0.528   0.116  1.00  0.00     0.026 C 
ATOM     19  C   UNL     1      -4.127   0.700  -0.294  1.00  0.00     0.026 C 
ATOM     20  O   UNL     1      -2.300   1.555  -1.551  1.00  0.00    -0.269 OA
ATOM     21  C   UNL     1      -5.653  -0.869   0.914  1.00  0.00     0.042 C 
ATOM     22  C   UNL     1      -4.894   1.930   0.008  1.00  0.00     0.042 C 
ATOM     23  C   UNL     1      -6.640   0.312   0.942  1.00  0.00     0.005 C 
ATOM     24  C   UNL     1      -5.931   1.665   1.114  1.00  0.00     0.005 C 
ENDBRANCH  13  14
ENDBRANCH  12  13
ENDBRANCH   1  12
TORSDOF 5
