REMARK SMILES CCN(CC)C(=O)c1ccccc1C(=O)N(CC)CC
REMARK SMILES IDX 8 1 13 2 12 3 11 4 10 5 9 6 6 7 3 8 7 9 2 10 1 11 4 12 5 13
REMARK SMILES IDX 14 14 15 15 16 16 17 17 18 18 19 19 20 20
REMARK H PARENT
ROOT
ATOM      1  C   UNL     1       0.371  -1.644  -0.986  1.00  0.00     0.052 A 
ATOM      2  C   UNL     1      -0.399  -1.481   0.169  1.00  0.00     0.052 A 
ATOM      3  C   UNL     1      -0.936  -2.598   0.818  1.00  0.00     0.014 A 
ATOM      4  C   UNL     1      -0.739  -3.872   0.280  1.00  0.00     0.001 A 
ATOM      5  C   UNL     1      -0.002  -4.031  -0.897  1.00  0.00     0.001 A 
ATOM      6  C   UNL     1       0.552  -2.919  -1.534  1.00  0.00     0.014 A 
ENDROOT
BRANCH   1   7
ATOM      7  C   UNL     1       0.941  -0.491  -1.700  1.00  0.00     0.254 C 
ATOM      8  N   UNL     1       2.126   0.085  -1.240  1.00  0.00    -0.339 N 
ATOM      9  O   UNL     1       0.338  -0.117  -2.704  1.00  0.00    -0.269 OA
BRANCH   8  10
ATOM     10  C   UNL     1       2.665   1.202  -2.016  1.00  0.00     0.116 C 
ATOM     11  C   UNL     1       1.987   2.521  -1.672  1.00  0.00     0.027 C 
ENDBRANCH   8  10
BRANCH   8  12
ATOM     12  C   UNL     1       2.936  -0.437  -0.131  1.00  0.00     0.116 C 
ATOM     13  C   UNL     1       3.295   0.608   0.915  1.00  0.00     0.027 C 
ENDBRANCH   8  12
ENDBRANCH   1   7
BRANCH   2  14
ATOM     14  C   UNL     1      -0.597  -0.158   0.779  1.00  0.00     0.254 C 
ATOM     15  O   UNL     1       0.054   0.078   1.794  1.00  0.00    -0.269 OA
ATOM     16  N   UNL     1      -1.504   0.732   0.205  1.00  0.00    -0.339 N 
BRANCH  16  17
ATOM     17  C   UNL     1      -1.620   2.058   0.810  1.00  0.00     0.116 C 
ATOM     18  C   UNL     1      -2.431   2.069   2.098  1.00  0.00     0.027 C 
ENDBRANCH  16  17
BRANCH  16  19
ATOM     19  C   UNL     1      -2.421   0.397  -0.892  1.00  0.00     0.116 C 
ATOM     20  C   UNL     1      -3.804  -0.000  -0.402  1.00  0.00     0.027 C 
ENDBRANCH  16  19
ENDBRANCH   2  14
TORSDOF 6
