REMARK SMILES Cn1c(=O)c2nc[nH]c2n(C)c1=O
REMARK SMILES IDX 11 1 10 2 9 3 5 4 6 5 7 6 8 7 3 8 4 9 2 10 1 11 12 12 13 13
REMARK H PARENT 8 14
ROOT
ATOM      1  C   UNL     1      -1.228  -2.191  -0.307  1.00  0.00     0.157 C 
ATOM      2  N   UNL     1      -0.472  -0.964  -0.122  1.00  0.00    -0.281 N 
ATOM      3  C   UNL     1      -1.056   0.282  -0.081  1.00  0.00     0.147 A 
ATOM      4  C   UNL     1      -0.397   1.469   0.081  1.00  0.00     0.171 A 
ATOM      5  N   UNL     1      -1.284   2.520   0.074  1.00  0.00    -0.229 NA
ATOM      6  C   UNL     1      -2.466   1.964  -0.090  1.00  0.00     0.199 A 
ATOM      7  N   UNL     1      -2.378   0.600  -0.190  1.00  0.00    -0.330 N 
ATOM      8  C   UNL     1       1.042   1.485   0.227  1.00  0.00     0.284 C 
ATOM      9  O   UNL     1       1.687   2.521   0.365  1.00  0.00    -0.267 OA
ATOM     10  N   UNL     1       1.612   0.200   0.191  1.00  0.00    -0.261 N 
ATOM     11  C   UNL     1       3.053   0.104   0.327  1.00  0.00     0.159 C 
ATOM     12  C   UNL     1       0.927  -1.022   0.011  1.00  0.00     0.332 C 
ATOM     13  O   UNL     1       1.533  -2.096  -0.029  1.00  0.00    -0.247 OA
ATOM     14  H   UNL     1      -3.151  -0.036  -0.320  1.00  0.00     0.169 HD
ENDROOT
TORSDOF 0
