REMARK SMILES CC(=O)Nc1ccc(C=NNC(N)=S)cc1
REMARK SMILES IDX 5 1 6 2 7 3 8 4 15 5 16 6 4 7 2 8 3 9 1 10 9 12 10 13 11 14
REMARK SMILES IDX 12 15 13 16 14 17
REMARK H PARENT 4 11 11 18 13 19 13 20
ROOT
ATOM      1  C   UNL     1      -2.003  -0.089   0.131  1.00  0.00     0.041 A 
ATOM      2  C   UNL     1      -1.012   0.398  -0.725  1.00  0.00     0.027 A 
ATOM      3  C   UNL     1       0.343   0.231  -0.414  1.00  0.00     0.012 A 
ATOM      4  C   UNL     1       0.715  -0.426   0.760  1.00  0.00    -0.005 A 
ATOM      5  C   UNL     1      -0.264  -0.918   1.623  1.00  0.00     0.012 A 
ATOM      6  C   UNL     1      -1.617  -0.748   1.307  1.00  0.00     0.027 A 
ENDROOT
BRANCH   1   7
ATOM      7  N   UNL     1      -3.386   0.037  -0.111  1.00  0.00    -0.326 N 
ATOM      8  C   UNL     1      -4.000   0.653  -1.188  1.00  0.00     0.221 C 
ATOM      9  O   UNL     1      -3.451   1.223  -2.123  1.00  0.00    -0.275 OA
ATOM     10  C   UNL     1      -5.505   0.590  -1.099  1.00  0.00     0.114 C 
ATOM     11  H   UNL     1      -3.997  -0.362   0.589  1.00  0.00     0.169 HD
ENDBRANCH   1   7
BRANCH   4  12
ATOM     12  C   UNL     1       2.137  -0.614   1.110  1.00  0.00     0.141 C 
ATOM     13  N   UNL     1       3.093  -0.179   0.353  1.00  0.00    -0.181 NA
BRANCH  13  14
ATOM     14  N   UNL     1       4.353  -0.435   0.820  1.00  0.00    -0.254 N 
ATOM     15  C   UNL     1       5.462  -0.034   0.128  1.00  0.00     0.184 C 
ATOM     16  N   UNL     1       5.222   0.603  -1.041  1.00  0.00    -0.375 N 
ATOM     17  S   UNL     1       7.000  -0.315   0.681  1.00  0.00    -0.040 S 
ATOM     18  H   UNL     1       4.491  -0.919   1.701  1.00  0.00     0.193 HD
ATOM     19  H   UNL     1       4.253   0.784  -1.272  1.00  0.00     0.159 HD
ATOM     20  H   UNL     1       5.969   0.979  -1.605  1.00  0.00     0.159 HD
ENDBRANCH  13  14
ENDBRANCH   4  12
TORSDOF 3
