REMARK SMILES COc1c(O[C@@H]2O[C@H](CO)[C@@H](O)[C@H](O)[C@H]2O)cc2c(c1OC)-c1ccc(SC)c(=O)cc1[C@@H](NC(C)=O)CC2
REMARK SMILES IDX 3 1 4 2 17 3 18 4 19 5 20 6 2 7 1 8 5 9 6 10 7 11 15 12 8 13
REMARK SMILES IDX 13 14 11 15 16 16 9 18 10 19 14 21 12 23 21 25 22 26 23 27
REMARK SMILES IDX 24 28 32 29 25 30 31 31 26 32 29 33 30 34 33 35 38 36 34 38
REMARK SMILES IDX 35 39 37 40 36 42 27 43 28 44 39 45
REMARK H PARENT 16 17 10 20 14 22 12 24 34 41
REMARK Flexibility Score:   24.900
ROOT
ATOM      1  C   UNL     1       0.858   0.824  -1.030  1.00  0.00     0.204 A 
ATOM      2  C   UNL     1       1.482  -0.284  -0.432  1.00  0.00     0.169 A 
ATOM      3  C   UNL     1       0.805  -0.978   0.575  1.00  0.00     0.055 A 
ATOM      4  C   UNL     1      -0.462  -0.564   1.024  1.00  0.00    -0.032 A 
ATOM      5  C   UNL     1      -1.083   0.569   0.462  1.00  0.00     0.031 A 
ATOM      6  C   UNL     1      -0.413   1.240  -0.588  1.00  0.00     0.172 A 
ENDROOT
BRANCH   1   7
ATOM      7  O   UNL     1       1.463   1.612  -1.983  1.00  0.00    -0.490 OA
ATOM      8  C   UNL     1       1.984   0.892  -3.098  1.00  0.00     0.278 C 
ENDBRANCH   1   7
BRANCH   2   9
ATOM      9  O   UNL     1       2.751  -0.581  -0.852  1.00  0.00    -0.458 OA
BRANCH   9  10
ATOM     10  C   UNL     1       3.426  -1.716  -0.311  1.00  0.00     0.339 C 
ATOM     11  O   UNL     1       3.809  -1.552   1.062  1.00  0.00    -0.332 OA
ATOM     12  C   UNL     1       4.624  -2.094  -1.216  1.00  0.00     0.214 C 
ATOM     13  C   UNL     1       4.906  -0.656   1.318  1.00  0.00     0.179 C 
ATOM     14  C   UNL     1       5.824  -1.155  -1.013  1.00  0.00     0.180 C 
ATOM     15  C   UNL     1       6.146  -0.999   0.478  1.00  0.00     0.177 C 
BRANCH  12  16
ATOM     16  O   UNL     1       5.027  -3.445  -0.918  1.00  0.00    -0.384 OA
ATOM     17  H   UNL     1       5.681  -3.710  -1.591  1.00  0.00     0.211 HD
ENDBRANCH  12  16
BRANCH  13  18
ATOM     18  C   UNL     1       4.496   0.822   1.222  1.00  0.00     0.191 C 
BRANCH  18  19
ATOM     19  O   UNL     1       3.475   1.105   2.180  1.00  0.00    -0.394 OA
ATOM     20  H   UNL     1       2.768   0.451   2.023  1.00  0.00     0.210 HD
ENDBRANCH  18  19
ENDBRANCH  13  18
BRANCH  14  21
ATOM     21  O   UNL     1       5.590   0.105  -1.634  1.00  0.00    -0.387 OA
ATOM     22  H   UNL     1       6.429   0.601  -1.630  1.00  0.00     0.211 HD
ENDBRANCH  14  21
BRANCH  15  23
ATOM     23  O   UNL     1       6.715  -2.228   0.959  1.00  0.00    -0.387 OA
ATOM     24  H   UNL     1       6.019  -2.914   0.881  1.00  0.00     0.211 HD
ENDBRANCH  15  23
ENDBRANCH   9  10
ENDBRANCH   2   9
BRANCH   6  25
ATOM     25  O   UNL     1      -0.980   2.377  -1.123  1.00  0.00    -0.492 OA
ATOM     26  C   UNL     1      -1.604   2.113  -2.377  1.00  0.00     0.278 C 
ENDBRANCH   6  25
BRANCH   5  27
ATOM     27  C   UNL     1      -2.432   1.032   0.966  1.00  0.00    -0.009 A 
ATOM     28  C   UNL     1      -2.367   2.276   1.501  1.00  0.00     0.010 A 
ATOM     29  C   UNL     1      -3.478   0.155   0.914  1.00  0.00    -0.014 A 
ATOM     30  C   UNL     1      -3.246   3.099   2.093  1.00  0.00     0.020 A 
ATOM     31  C   UNL     1      -4.754   0.483   1.200  1.00  0.00     0.059 A 
ATOM     32  C   UNL     1      -4.578   2.989   2.184  1.00  0.00     0.054 A 
ATOM     33  C   UNL     1      -5.266   1.895   1.379  1.00  0.00     0.192 A 
ATOM     34  O   UNL     1      -6.241   2.168   0.701  1.00  0.00    -0.289 OA
BRANCH  29  35
ATOM     35  C   UNL     1      -3.294  -1.338   0.546  1.00  0.00     0.113 C 
BRANCH  35  36
ATOM     36  C   UNL     1      -2.363  -2.130   1.495  1.00  0.00     0.034 CG0
ATOM     37  G   UNL     1      -1.175  -1.367   2.079  1.00  0.00     0.000 G0
ENDBRANCH  35  36
BRANCH  35  38
ATOM     38  N   UNL     1      -2.924  -1.441  -0.859  1.00  0.00    -0.350 N 
ATOM     39  C   UNL     1      -3.090  -2.596  -1.583  1.00  0.00     0.217 C 
ATOM     40  O   UNL     1      -3.573  -3.625  -1.123  1.00  0.00    -0.275 OA
ATOM     41  H   UNL     1      -2.519  -0.634  -1.310  1.00  0.00     0.164 HD
ATOM     42  C   UNL     1      -2.649  -2.489  -3.017  1.00  0.00     0.114 C 
ENDBRANCH  35  38
ENDBRANCH  29  35
BRANCH  32  43
ATOM     43  S   UNL     1      -5.436   4.123   3.200  1.00  0.00    -0.126 SA
ATOM     44  C   UNL     1      -7.082   4.202   2.470  1.00  0.00     0.091 C 
ENDBRANCH  32  43
ENDBRANCH   5  27
BRANCH   4  45
ATOM     45  C   UNL     1      -1.175  -1.367   2.079  1.00  0.00     0.039 CG0
ATOM     46  G   UNL     1      -2.363  -2.130   1.495  1.00  0.00     0.000 G0
ENDBRANCH   4  45
TORSDOF 11
