REMARK SMILES CCN(CC)CCNC(=O)c1cc(S(C)(=O)=O)ccc1OC
REMARK SMILES IDX 7 1 6 2 3 3 2 4 1 5 4 6 5 7 8 8 9 9 10 10 11 12 20 13 12 14
REMARK SMILES IDX 19 15 13 16 18 17 21 18 22 19 14 20 16 21 17 22 15 23
REMARK H PARENT 8 11
ROOT
ATOM      1  C   UNL     1      -1.476  -0.691  -0.259  1.00  0.00     0.131 C 
ENDROOT
BRANCH   1   2
ATOM      2  C   UNL     1      -2.598   0.362  -0.273  1.00  0.00     0.105 C 
BRANCH   2   3
ATOM      3  N   UNL     1      -3.968  -0.172  -0.406  1.00  0.00    -0.302 NA
BRANCH   3   4
ATOM      4  C   UNL     1      -4.339  -1.135   0.642  1.00  0.00     0.081 C 
ATOM      5  C   UNL     1      -4.376  -0.600   2.070  1.00  0.00     0.021 C 
ENDBRANCH   3   4
BRANCH   3   6
ATOM      6  C   UNL     1      -4.924   0.936  -0.571  1.00  0.00     0.081 C 
ATOM      7  C   UNL     1      -6.339   0.489  -0.924  1.00  0.00     0.021 C 
ENDBRANCH   3   6
ENDBRANCH   2   3
ENDBRANCH   1   2
BRANCH   1   8
ATOM      8  N   UNL     1      -0.161  -0.076  -0.231  1.00  0.00    -0.351 N 
ATOM      9  C   UNL     1       0.976  -0.804  -0.498  1.00  0.00     0.255 C 
ATOM     10  O   UNL     1       0.947  -1.960  -0.908  1.00  0.00    -0.269 OA
ATOM     11  H   UNL     1      -0.036   0.779   0.302  1.00  0.00     0.163 HD
BRANCH   9  12
ATOM     12  C   UNL     1       2.296  -0.131  -0.274  1.00  0.00     0.083 A 
ATOM     13  C   UNL     1       2.488   1.006   0.542  1.00  0.00     0.131 A 
ATOM     14  C   UNL     1       3.397  -0.716  -0.925  1.00  0.00     0.038 A 
ATOM     15  C   UNL     1       3.781   1.535   0.680  1.00  0.00     0.048 A 
ATOM     16  C   UNL     1       4.675  -0.183  -0.759  1.00  0.00     0.068 A 
ATOM     17  C   UNL     1       4.872   0.945   0.034  1.00  0.00     0.024 A 
BRANCH  13  18
ATOM     18  O   UNL     1       1.387   1.534   1.169  1.00  0.00    -0.496 OA
ATOM     19  C   UNL     1       1.584   2.636   2.050  1.00  0.00     0.278 C 
ENDBRANCH  13  18
BRANCH  16  20
ATOM     20  S   UNL     1       6.048  -0.941  -1.591  1.00  0.00     0.175 S 
ATOM     21  O   UNL     1       5.668  -1.089  -2.982  1.00  0.00    -0.224 OA
ATOM     22  O   UNL     1       7.242  -0.206  -1.218  1.00  0.00    -0.224 OA
ATOM     23  C   UNL     1       6.161  -2.552  -0.856  1.00  0.00     0.163 C 
ENDBRANCH  16  20
ENDBRANCH   9  12
ENDBRANCH   1   8
TORSDOF 8
