REMARK SMILES C[N+]1(CCC(O)(c2ccccc2)c2cccs2)CCOCC1
REMARK SMILES IDX 4 1 3 2 2 3 18 4 22 5 19 6 21 7 20 8 1 9 5 10 6 11 13 13
REMARK SMILES IDX 14 14 17 15 15 16 16 17 7 18 8 19 12 20 9 21 11 22 10 23
REMARK H PARENT 6 12
ROOT
ATOM      1  C   UNL     1      -0.164   0.259  -1.075  1.00  0.00     0.107 C 
ENDROOT
BRANCH   1   2
ATOM      2  C   UNL     1      -0.811   0.114   0.302  1.00  0.00     0.267 C 
BRANCH   2   3
ATOM      3  N   UNL     1      -2.302   0.550   0.343  1.00  0.00    -0.322 N 
ATOM      4  C   UNL     1      -2.893   0.227   1.755  1.00  0.00     0.292 C 
ATOM      5  C   UNL     1      -3.193  -0.173  -0.701  1.00  0.00     0.292 C 
ATOM      6  C   UNL     1      -3.104  -1.282   1.956  1.00  0.00     0.221 C 
ATOM      7  C   UNL     1      -3.342  -1.663  -0.371  1.00  0.00     0.221 C 
ATOM      8  O   UNL     1      -3.922  -1.841   0.925  1.00  0.00    -0.370 OA
ATOM      9  C   UNL     1      -2.418   2.060   0.132  1.00  0.00     0.334 C 
ENDBRANCH   2   3
ENDBRANCH   1   2
BRANCH   1  10
ATOM     10  C   UNL     1       1.378   0.038  -1.096  1.00  0.00     0.129 C 
BRANCH  10  11
ATOM     11  O   UNL     1       1.733   0.270  -2.473  1.00  0.00    -0.379 OA
ATOM     12  H   UNL     1       2.688   0.465  -2.501  1.00  0.00     0.212 HD
ENDBRANCH  10  11
BRANCH  10  13
ATOM     13  C   UNL     1       1.687  -1.443  -0.839  1.00  0.00     0.041 A 
ATOM     14  C   UNL     1       1.914  -2.441  -1.776  1.00  0.00     0.019 A 
ATOM     15  S   UNL     1       1.754  -2.101   0.757  1.00  0.00    -0.146 S 
ATOM     16  C   UNL     1       2.160  -3.715  -1.189  1.00  0.00     0.012 A 
ATOM     17  C   UNL     1       2.106  -3.668   0.184  1.00  0.00     0.065 A 
ENDBRANCH  10  13
BRANCH  10  18
ATOM     18  C   UNL     1       2.216   1.047  -0.298  1.00  0.00    -0.011 A 
ATOM     19  C   UNL     1       3.529   0.741   0.117  1.00  0.00     0.007 A 
ATOM     20  C   UNL     1       1.758   2.356  -0.049  1.00  0.00     0.007 A 
ATOM     21  C   UNL     1       4.309   1.667   0.815  1.00  0.00     0.000 A 
ATOM     22  C   UNL     1       2.540   3.283   0.647  1.00  0.00     0.000 A 
ATOM     23  C   UNL     1       3.811   2.935   1.088  1.00  0.00     0.000 A 
ENDBRANCH  10  18
ENDBRANCH   1  10
TORSDOF 6
