REMARK SMILES CCOC(=O)C1(c2ccccc2)CCC=CC1N(C)C
REMARK SMILES IDX 4 1 5 2 3 3 2 4 1 5 6 6 13 7 17 8 14 9 16 10 15 11 7 12 8 13
REMARK SMILES IDX 12 14 9 15 11 16 10 17 18 18 19 19 20 20
REMARK H PARENT
ROOT
ATOM      1  C   UNL     1       1.080  -0.717  -0.638  1.00  0.00     0.318 C 
ATOM      2  O   UNL     1       1.221  -0.736  -1.858  1.00  0.00    -0.251 OA
ENDROOT
BRANCH   1   3
ATOM      3  O   UNL     1       2.072  -1.035   0.245  1.00  0.00    -0.465 OA
BRANCH   3   4
ATOM      4  C   UNL     1       3.349  -1.342  -0.332  1.00  0.00     0.229 C 
ATOM      5  C   UNL     1       4.137  -0.067  -0.570  1.00  0.00     0.049 C 
ENDBRANCH   3   4
ENDBRANCH   1   3
BRANCH   1   6
ATOM      6  C   UNL     1      -0.241  -0.348   0.079  1.00  0.00     0.112 C 
ATOM      7  C   UNL     1      -0.217  -0.665   1.604  1.00  0.00     0.030 C 
ATOM      8  C   UNL     1      -0.410   1.221  -0.137  1.00  0.00     0.100 C 
ATOM      9  C   UNL     1      -1.462  -0.157   2.340  1.00  0.00     0.029 C 
ATOM     10  C   UNL     1      -1.435   1.825   0.810  1.00  0.00    -0.011 C 
ATOM     11  C   UNL     1      -1.906   1.205   1.903  1.00  0.00    -0.030 C 
BRANCH   6  12
ATOM     12  C   UNL     1      -1.369  -1.237  -0.543  1.00  0.00    -0.029 A 
ATOM     13  C   UNL     1      -2.577  -0.724  -1.045  1.00  0.00     0.005 A 
ATOM     14  C   UNL     1      -1.192  -2.637  -0.592  1.00  0.00     0.005 A 
ATOM     15  C   UNL     1      -3.558  -1.569  -1.575  1.00  0.00     0.000 A 
ATOM     16  C   UNL     1      -2.172  -3.479  -1.123  1.00  0.00     0.000 A 
ATOM     17  C   UNL     1      -3.357  -2.944  -1.615  1.00  0.00     0.000 A 
ENDBRANCH   6  12
BRANCH   8  18
ATOM     18  N   UNL     1       0.843   2.030  -0.158  1.00  0.00    -0.302 NA
ATOM     19  C   UNL     1       1.426   2.371   1.136  1.00  0.00     0.105 C 
ATOM     20  C   UNL     1       0.712   3.231  -0.987  1.00  0.00     0.105 C 
ENDBRANCH   8  18
ENDBRANCH   1   6
TORSDOF 5
