REMARK SMILES O=P(O)(O)C(Sc1ccc(Cl)cc1)P(=O)(O)O
REMARK SMILES IDX 5 1 2 2 1 3 3 4 4 6 6 8 7 9 8 10 13 11 9 12 12 13 10 14
REMARK SMILES IDX 11 15 14 16 15 17 16 18 17 20
REMARK H PARENT 3 5 4 7 16 19 17 21
ROOT
ATOM      1  C   UNL     1      -1.006  -0.249   0.867  1.00  0.00     0.280 C 
ENDROOT
BRANCH   1   2
ATOM      2  P   UNL     1      -2.138  -1.624   0.872  1.00  0.00     0.351 P 
ATOM      3  O   UNL     1      -2.306  -2.470   2.090  1.00  0.00    -0.258 OA
BRANCH   2   4
ATOM      4  O   UNL     1      -3.557  -1.068   0.370  1.00  0.00    -0.323 OA
ATOM      5  H   UNL     1      -4.286  -1.701   0.515  1.00  0.00     0.221 HD
ENDBRANCH   2   4
BRANCH   2   6
ATOM      6  O   UNL     1      -1.766  -2.543  -0.398  1.00  0.00    -0.323 OA
ATOM      7  H   UNL     1      -2.177  -3.426  -0.345  1.00  0.00     0.221 HD
ENDBRANCH   2   6
ENDBRANCH   1   2
BRANCH   1   8
ATOM      8  S   UNL     1       0.668  -0.970   1.142  1.00  0.00    -0.097 SA
BRANCH   8   9
ATOM      9  C   UNL     1       1.499  -0.348  -0.303  1.00  0.00     0.009 A 
ATOM     10  C   UNL     1       2.436   0.682  -0.176  1.00  0.00     0.016 A 
ATOM     11  C   UNL     1       1.242  -0.896  -1.565  1.00  0.00     0.016 A 
ATOM     12  C   UNL     1       3.098   1.174  -1.304  1.00  0.00     0.021 A 
ATOM     13  C   UNL     1       1.903  -0.404  -2.693  1.00  0.00     0.021 A 
ATOM     14  C   UNL     1       2.827   0.630  -2.558  1.00  0.00     0.041 A 
ATOM     15  Cl  UNL     1       3.641   1.237  -3.947  1.00  0.00    -0.084 Cl
ENDBRANCH   8   9
ENDBRANCH   1   8
BRANCH   1  16
ATOM     16  P   UNL     1      -1.189   1.062   2.058  1.00  0.00     0.351 P 
ATOM     17  O   UNL     1      -1.202   0.764   3.520  1.00  0.00    -0.258 OA
BRANCH  16  18
ATOM     18  O   UNL     1      -0.074   2.173   1.722  1.00  0.00    -0.323 OA
ATOM     19  H   UNL     1       0.030   2.824   2.441  1.00  0.00     0.221 HD
ENDBRANCH  16  18
BRANCH  16  20
ATOM     20  O   UNL     1      -2.500   1.890   1.640  1.00  0.00    -0.323 OA
ATOM     21  H   UNL     1      -2.794   2.510   2.334  1.00  0.00     0.221 HD
ENDBRANCH  16  20
ENDBRANCH   1  16
TORSDOF 8
