REMARK SMILES CCS(=O)(=O)CCn1c([N+](=O)[O-])cnc1C
REMARK SMILES IDX 6 1 3 2 4 3 5 4 2 5 1 6 7 7 8 8 15 9 9 10 14 11 13 12 16 13
REMARK SMILES IDX 10 14 11 15 12 16
REMARK H PARENT
ROOT
ATOM      1  C   UNL     1       0.554   0.040   0.044  1.00  0.00     0.183 C 
ENDROOT
BRANCH   1   2
ATOM      2  S   UNL     1       1.761  -1.229   0.334  1.00  0.00     0.153 S 
ATOM      3  O   UNL     1       1.429  -2.332  -0.546  1.00  0.00    -0.229 OA
ATOM      4  O   UNL     1       1.860  -1.422   1.767  1.00  0.00    -0.229 OA
BRANCH   2   5
ATOM      5  C   UNL     1       3.279  -0.485  -0.241  1.00  0.00     0.133 C 
ATOM      6  C   UNL     1       4.454  -1.429  -0.095  1.00  0.00     0.021 C 
ENDBRANCH   2   5
ENDBRANCH   1   2
BRANCH   1   7
ATOM      7  C   UNL     1      -0.784  -0.387   0.623  1.00  0.00     0.260 C 
BRANCH   7   8
ATOM      8  N   UNL     1      -1.875   0.469   0.184  1.00  0.00    -0.209 N 
ATOM      9  C   UNL     1      -2.675   0.223  -0.922  1.00  0.00     0.193 A 
ATOM     10  C   UNL     1      -2.364   1.611   0.768  1.00  0.00     0.342 A 
ATOM     11  N   UNL     1      -3.617   1.140  -1.034  1.00  0.00    -0.213 NA
ATOM     12  C   UNL     1      -3.444   1.998   0.019  1.00  0.00     0.218 A 
ATOM     13  C   UNL     1      -2.495  -0.929  -1.846  1.00  0.00     0.117 C 
BRANCH  10  14
ATOM     14  N   UNL     1      -1.835   2.250   1.921  1.00  0.00    -0.026 N 
ATOM     15  O   UNL     1      -2.588   3.027   2.518  1.00  0.00    -0.358 OA
ATOM     16  O   UNL     1      -0.661   2.006   2.218  1.00  0.00    -0.358 OA
ENDBRANCH  10  14
ENDBRANCH   7   8
ENDBRANCH   1   7
TORSDOF 5
