REMARK SMILES C[N+]1(C)[C@@H]2C[C@H](OC(=O)C(O)(c3cccs3)c3cccs3)C[C@H]1[C@@H]1O[C@@H]12
REMARK SMILES IDX 8 1 9 2 7 3 6 4 2 5 23 6 4 7 22 8 24 9 5 10 26 11 25 12 1 13
REMARK SMILES IDX 3 14 10 15 11 16 12 18 13 19 16 20 14 21 15 22 17 23 18 24
REMARK SMILES IDX 21 25 19 26 20 27
REMARK H PARENT 11 17
ROOT
ATOM      1  C   UNL     1      -1.340   0.616   0.234  1.00  0.00     0.349 C 
ATOM      2  O   UNL     1      -1.235   0.799   1.443  1.00  0.00    -0.248 OA
ENDROOT
BRANCH   1   3
ATOM      3  O   UNL     1      -0.249   0.541  -0.598  1.00  0.00    -0.459 OA
BRANCH   3   4
ATOM      4  C   UNL     1       1.042   0.640   0.030  1.00  0.00     0.188 C 
ATOM      5  N   UNL     1       3.539  -0.797  -0.617  1.00  0.00    -0.319 N 
ATOM      6  C   UNL     1       3.494   0.757  -0.725  1.00  0.00     0.221 C 
ATOM      7  C   UNL     1       2.927  -0.925   0.813  1.00  0.00     0.221 C 
ATOM      8  C   UNL     1       2.039   1.152  -1.040  1.00  0.00     0.113 C 
ATOM      9  C   UNL     1       3.830   1.310   0.657  1.00  0.00     0.212 C 
ATOM     10  C   UNL     1       1.406  -0.721   0.680  1.00  0.00     0.113 C 
ATOM     11  C   UNL     1       3.468   0.237   1.636  1.00  0.00     0.212 C 
ATOM     12  O   UNL     1       4.824   0.642   1.439  1.00  0.00    -0.357 OA
ATOM     13  C   UNL     1       4.989  -1.318  -0.658  1.00  0.00     0.334 C 
ATOM     14  C   UNL     1       2.830  -1.576  -1.724  1.00  0.00     0.334 C 
ENDBRANCH   3   4
ENDBRANCH   1   3
BRANCH   1  15
ATOM     15  C   UNL     1      -2.670   0.395  -0.559  1.00  0.00     0.231 C 
BRANCH  15  16
ATOM     16  O   UNL     1      -2.444   0.397  -1.976  1.00  0.00    -0.369 OA
ATOM     17  H   UNL     1      -2.544   1.316  -2.276  1.00  0.00     0.213 HD
ENDBRANCH  15  16
BRANCH  15  18
ATOM     18  C   UNL     1      -3.232  -0.979  -0.190  1.00  0.00     0.053 A 
ATOM     19  C   UNL     1      -3.189  -1.645   1.029  1.00  0.00     0.019 A 
ATOM     20  S   UNL     1      -4.121  -1.914  -1.341  1.00  0.00    -0.145 S 
ATOM     21  C   UNL     1      -3.848  -2.908   1.004  1.00  0.00     0.012 A 
ATOM     22  C   UNL     1      -4.394  -3.177  -0.228  1.00  0.00     0.065 A 
ENDBRANCH  15  18
BRANCH  15  23
ATOM     23  C   UNL     1      -3.613   1.549  -0.244  1.00  0.00     0.053 A 
ATOM     24  C   UNL     1      -4.785   1.568   0.495  1.00  0.00     0.019 A 
ATOM     25  S   UNL     1      -3.256   3.128  -0.851  1.00  0.00    -0.145 S 
ATOM     26  C   UNL     1      -5.382   2.862   0.554  1.00  0.00     0.012 A 
ATOM     27  C   UNL     1      -4.657   3.798  -0.145  1.00  0.00     0.065 A 
ENDBRANCH  15  23
ENDBRANCH   1  15
TORSDOF 6
