REMARK SMILES CCC[C@@]1(CCc2ccccc2)CC(O)=C([C@H](CC)c2cccc(NS(=O)(=O)c3ccc(C(F)(F)F)cn3)c2)C(=O)O1
REMARK SMILES IDX 20 1 39 2 24 3 23 4 22 5 21 6 17 7 16 8 4 9 13 10 42 11
REMARK SMILES IDX 14 12 40 13 41 14 3 15 2 16 1 17 5 18 6 19 7 20 8 21 12 22
REMARK SMILES IDX 9 23 11 24 10 25 15 26 18 28 19 29 25 30 26 32 27 33 28 34
REMARK SMILES IDX 29 35 30 36 38 37 31 38 37 39 32 40 33 41 34 42 35 43 36 44
REMARK H PARENT 15 27 25 31
ROOT
ATOM      1  C   UNL     1       2.033  -0.322  -0.705  1.00  0.00    -0.038 A 
ATOM      2  C   UNL     1       3.017  -1.325  -0.646  1.00  0.00     0.031 A 
ATOM      3  C   UNL     1       4.135  -1.282  -1.480  1.00  0.00     0.049 A 
ATOM      4  C   UNL     1       4.264  -0.250  -2.410  1.00  0.00     0.027 A 
ATOM      5  C   UNL     1       3.301   0.756  -2.477  1.00  0.00     0.002 A 
ATOM      6  C   UNL     1       2.197   0.726  -1.625  1.00  0.00     0.004 A 
ENDROOT
BRANCH   1   7
ATOM      7  C   UNL     1       0.842  -0.382   0.250  1.00  0.00     0.060 C 
BRANCH   7   8
ATOM      8  C   UNL     1      -0.498  -0.064  -0.422  1.00  0.00     0.082 C 
ATOM      9  C   UNL     1      -3.257  -0.122  -1.170  1.00  0.00     0.120 C 
ATOM     10  C   UNL     1      -2.548   1.230  -1.014  1.00  0.00     0.123 C 
ATOM     11  O   UNL     1      -2.305  -1.066  -1.729  1.00  0.00    -0.455 OA
ATOM     12  C   UNL     1      -1.218   1.071  -0.338  1.00  0.00     0.107 C 
ATOM     13  C   UNL     1      -1.037  -1.182  -1.261  1.00  0.00     0.338 C 
ATOM     14  O   UNL     1      -0.369  -2.170  -1.540  1.00  0.00    -0.246 OA
BRANCH   9  15
ATOM     15  C   UNL     1      -3.748  -0.676   0.197  1.00  0.00     0.049 C 
BRANCH  15  16
ATOM     16  C   UNL     1      -4.342  -2.089   0.145  1.00  0.00     0.001 C 
ATOM     17  C   UNL     1      -4.784  -2.551   1.526  1.00  0.00     0.004 C 
ENDBRANCH  15  16
ENDBRANCH   9  15
BRANCH   9  18
ATOM     18  C   UNL     1      -4.376  -0.020  -2.244  1.00  0.00     0.054 C 
BRANCH  18  19
ATOM     19  C   UNL     1      -5.427   1.091  -2.101  1.00  0.00     0.039 C 
BRANCH  19  20
ATOM     20  C   UNL     1      -6.444   0.910  -1.006  1.00  0.00    -0.048 A 
ATOM     21  C   UNL     1      -7.328  -0.178  -1.023  1.00  0.00     0.004 A 
ATOM     22  C   UNL     1      -6.547   1.848   0.032  1.00  0.00     0.004 A 
ATOM     23  C   UNL     1      -8.274  -0.340  -0.010  1.00  0.00     0.000 A 
ATOM     24  C   UNL     1      -7.494   1.684   1.044  1.00  0.00     0.000 A 
ATOM     25  C   UNL     1      -8.355   0.589   1.025  1.00  0.00     0.000 A 
ENDBRANCH  19  20
ENDBRANCH  18  19
ENDBRANCH   9  18
BRANCH  12  26
ATOM     26  O   UNL     1      -0.780   2.159   0.384  1.00  0.00    -0.512 OA
ATOM     27  H   UNL     1      -1.375   2.916   0.240  1.00  0.00     0.293 HD
ENDBRANCH  12  26
ENDBRANCH   7   8
BRANCH   7  28
ATOM     28  C   UNL     1       1.148   0.295   1.616  1.00  0.00     0.010 C 
ATOM     29  C   UNL     1       1.975   1.578   1.595  1.00  0.00     0.005 C 
ENDBRANCH   7  28
ENDBRANCH   1   7
BRANCH   3  30
ATOM     30  N   UNL     1       5.139  -2.289  -1.445  1.00  0.00    -0.278 N 
ATOM     31  H   UNL     1       5.733  -2.401  -2.262  1.00  0.00     0.180 HD
BRANCH  30  32
ATOM     32  S   UNL     1       5.917  -2.715  -0.010  1.00  0.00     0.279 S 
ATOM     33  O   UNL     1       6.991  -3.599  -0.430  1.00  0.00    -0.200 OA
ATOM     34  O   UNL     1       4.960  -3.153   0.984  1.00  0.00    -0.200 OA
BRANCH  32  35
ATOM     35  C   UNL     1       6.701  -1.215   0.596  1.00  0.00     0.175 A 
ATOM     36  C   UNL     1       8.047  -1.219   0.928  1.00  0.00     0.043 A 
ATOM     37  N   UNL     1       5.896  -0.123   0.676  1.00  0.00    -0.242 NA
ATOM     38  C   UNL     1       8.602  -0.026   1.385  1.00  0.00     0.018 A 
ATOM     39  C   UNL     1       6.466   1.016   1.126  1.00  0.00     0.125 A 
ATOM     40  C   UNL     1       7.800   1.119   1.499  1.00  0.00     0.074 A 
BRANCH  40  41
ATOM     41  C   UNL     1       8.347   2.434   1.964  1.00  0.00     0.417 C 
ATOM     42  F   UNL     1       8.747   3.221   0.928  1.00  0.00    -0.166 F 
ATOM     43  F   UNL     1       7.441   3.170   2.666  1.00  0.00    -0.166 F 
ATOM     44  F   UNL     1       9.432   2.305   2.777  1.00  0.00    -0.166 F 
ENDBRANCH  40  41
ENDBRANCH  32  35
ENDBRANCH  30  32
ENDBRANCH   3  30
TORSDOF 13
