REMARK SMILES O=C(Cc1ccc(-c2ccc(OCCN3CCOCC3)cc2)cn1)NCc1ccccc1
REMARK SMILES IDX 11 1 10 2 9 3 8 4 22 5 21 6 12 7 13 8 14 9 15 10 16 11 17 12
REMARK SMILES IDX 18 13 20 14 19 15 7 16 23 17 6 18 24 19 5 20 4 21 3 22 2 23
REMARK SMILES IDX 1 24 25 25 26 27 27 28 28 29 32 30 29 31 31 32 30 33
REMARK H PARENT 25 26
ROOT
ATOM      1  C   UNL     1      -3.296   0.467  -0.491  1.00  0.00     0.119 A 
ATOM      2  C   UNL     1      -2.453  -0.392   0.209  1.00  0.00     0.047 A 
ATOM      3  C   UNL     1      -1.080  -0.417  -0.075  1.00  0.00     0.012 A 
ATOM      4  C   UNL     1      -0.522   0.412  -1.062  1.00  0.00    -0.017 A 
ATOM      5  C   UNL     1      -1.387   1.266  -1.762  1.00  0.00     0.012 A 
ATOM      6  C   UNL     1      -2.756   1.291  -1.479  1.00  0.00     0.047 A 
ENDROOT
BRANCH   1   7
ATOM      7  O   UNL     1      -4.644   0.598  -0.313  1.00  0.00    -0.492 OA
BRANCH   7   8
ATOM      8  C   UNL     1      -5.252  -0.194   0.709  1.00  0.00     0.245 C 
BRANCH   8   9
ATOM      9  C   UNL     1      -6.757   0.137   0.786  1.00  0.00     0.126 C 
BRANCH   9  10
ATOM     10  N   UNL     1      -7.533  -0.249  -0.410  1.00  0.00    -0.295 NA
ATOM     11  C   UNL     1      -7.715  -1.709  -0.552  1.00  0.00     0.113 C 
ATOM     12  C   UNL     1      -8.735  -2.314   0.429  1.00  0.00     0.175 C 
ATOM     13  O   UNL     1     -10.004  -1.655   0.343  1.00  0.00    -0.379 OA
ATOM     14  C   UNL     1      -8.871   0.384  -0.418  1.00  0.00     0.113 C 
ATOM     15  C   UNL     1      -9.863  -0.248   0.572  1.00  0.00     0.175 C 
ENDBRANCH   9  10
ENDBRANCH   8   9
ENDBRANCH   7   8
ENDBRANCH   1   7
BRANCH   4  16
ATOM     16  C   UNL     1       0.920   0.387  -1.347  1.00  0.00     0.000 A 
ATOM     17  C   UNL     1       1.418   0.251  -2.642  1.00  0.00     0.120 A 
ATOM     18  C   UNL     1       1.876   0.504  -0.333  1.00  0.00     0.012 A 
ATOM     19  N   UNL     1       2.734   0.229  -2.972  1.00  0.00    -0.260 NA
ATOM     20  C   UNL     1       3.238   0.481  -0.637  1.00  0.00     0.025 A 
ATOM     21  C   UNL     1       3.634   0.324  -1.963  1.00  0.00     0.050 A 
BRANCH  21  22
ATOM     22  C   UNL     1       5.087   0.353  -2.358  1.00  0.00     0.156 C 
BRANCH  22  23
ATOM     23  C   UNL     1       5.989  -0.552  -1.539  1.00  0.00     0.226 C 
ATOM     24  O   UNL     1       5.602  -1.540  -0.923  1.00  0.00    -0.275 OA
ATOM     25  N   UNL     1       7.316  -0.161  -1.563  1.00  0.00    -0.352 N 
ATOM     26  H   UNL     1       7.555   0.743  -1.947  1.00  0.00     0.163 HD
BRANCH  25  27
ATOM     27  C   UNL     1       8.309  -0.803  -0.731  1.00  0.00     0.151 C 
BRANCH  27  28
ATOM     28  C   UNL     1       8.488  -0.047   0.560  1.00  0.00    -0.029 A 
ATOM     29  C   UNL     1       7.633  -0.290   1.645  1.00  0.00     0.005 A 
ATOM     30  C   UNL     1       9.481   0.936   0.684  1.00  0.00     0.005 A 
ATOM     31  C   UNL     1       7.778   0.424   2.836  1.00  0.00     0.000 A 
ATOM     32  C   UNL     1       9.623   1.649   1.877  1.00  0.00     0.000 A 
ATOM     33  C   UNL     1       8.773   1.393   2.951  1.00  0.00     0.000 A 
ENDBRANCH  27  28
ENDBRANCH  25  27
ENDBRANCH  22  23
ENDBRANCH  21  22
ENDBRANCH   4  16
TORSDOF 9
