REMARK SMILES CCCCNC(=O)NS(=O)(=O)c1ccc(C)cc1
REMARK SMILES IDX 5 1 6 2 7 3 8 4 4 7 3 8 2 9 1 10 9 11 10 12 11 13 12 14
REMARK SMILES IDX 13 15 18 16 14 17 17 18 15 19 16 20
REMARK H PARENT 5 5 8 6
ROOT
ATOM      1  N   UNL     1      -2.229   0.326  -1.025  1.00  0.00    -0.337 N 
ATOM      2  C   UNL     1      -0.951   0.216  -1.494  1.00  0.00     0.328 C 
ATOM      3  O   UNL     1      -0.417  -0.841  -1.783  1.00  0.00    -0.248 OA
ATOM      4  N   UNL     1      -0.331   1.447  -1.594  1.00  0.00    -0.231 N 
ATOM      5  H   UNL     1      -2.653   1.239  -1.075  1.00  0.00     0.165 HD
ATOM      6  H   UNL     1      -0.761   2.288  -1.238  1.00  0.00     0.185 HD
ENDROOT
BRANCH   1   7
ATOM      7  C   UNL     1      -3.104  -0.826  -0.980  1.00  0.00     0.117 C 
BRANCH   7   8
ATOM      8  C   UNL     1      -4.293  -0.623  -0.044  1.00  0.00     0.021 C 
BRANCH   8   9
ATOM      9  C   UNL     1      -3.969  -0.803   1.443  1.00  0.00    -0.002 C 
ATOM     10  C   UNL     1      -3.044   0.257   2.018  1.00  0.00     0.004 C 
ENDBRANCH   8   9
ENDBRANCH   7   8
ENDBRANCH   1   7
BRANCH   4  11
ATOM     11  S   UNL     1       1.216   1.695  -2.144  1.00  0.00     0.265 S 
ATOM     12  O   UNL     1       1.460   3.112  -1.951  1.00  0.00    -0.201 OA
ATOM     13  O   UNL     1       1.368   1.097  -3.451  1.00  0.00    -0.201 OA
BRANCH  11  14
ATOM     14  C   UNL     1       2.224   0.823  -0.974  1.00  0.00     0.087 A 
ATOM     15  C   UNL     1       2.630   1.464   0.200  1.00  0.00     0.022 A 
ATOM     16  C   UNL     1       2.659  -0.472  -1.261  1.00  0.00     0.022 A 
ATOM     17  C   UNL     1       3.451   0.790   1.106  1.00  0.00     0.005 A 
ATOM     18  C   UNL     1       3.478  -1.142  -0.351  1.00  0.00     0.005 A 
ATOM     19  C   UNL     1       3.868  -0.523   0.845  1.00  0.00    -0.051 A 
ATOM     20  C   UNL     1       4.778  -1.234   1.803  1.00  0.00     0.044 C 
ENDBRANCH  11  14
ENDBRANCH   4  11
TORSDOF 5
