REMARK SMILES Cc1ccc(NC2=NCCN2)c(Cl)c1
REMARK SMILES IDX 1 1 2 2 14 3 12 4 13 5 5 6 4 7 3 8 6 9 7 10 8 11 11 12 9 13
REMARK SMILES IDX 10 14
REMARK H PARENT 6 15 11 16
ROOT
ATOM      1  C   UNL     1      -4.604   0.568   0.629  1.00  0.00     0.044 C 
ATOM      2  C   UNL     1      -3.167   0.171   0.474  1.00  0.00    -0.050 A 
ATOM      3  C   UNL     1      -2.698  -1.030   1.013  1.00  0.00     0.026 A 
ATOM      4  C   UNL     1      -1.347  -1.376   0.892  1.00  0.00     0.064 A 
ATOM      5  Cl  UNL     1      -0.835  -2.889   1.567  1.00  0.00    -0.082 Cl
ATOM      6  C   UNL     1      -0.418  -0.528   0.253  1.00  0.00     0.060 A 
ATOM      7  C   UNL     1      -0.909   0.667  -0.284  1.00  0.00     0.028 A 
ATOM      8  C   UNL     1      -2.260   1.020  -0.166  1.00  0.00     0.005 A 
ENDROOT
BRANCH   6   9
ATOM      9  N   UNL     1       0.927  -0.938   0.119  1.00  0.00    -0.325 N 
ATOM     10  C   UNL     1       2.015  -0.195  -0.207  1.00  0.00     0.195 C 
ATOM     11  N   UNL     1       2.110   1.065  -0.516  1.00  0.00    -0.251 NA
ATOM     12  N   UNL     1       3.174  -0.923  -0.221  1.00  0.00    -0.354 N 
ATOM     13  C   UNL     1       3.561   1.290  -0.744  1.00  0.00     0.167 C 
ATOM     14  C   UNL     1       4.196  -0.097  -0.830  1.00  0.00     0.139 C 
ATOM     15  H   UNL     1       1.132  -1.765   0.669  1.00  0.00     0.170 HD
ATOM     16  H   UNL     1       3.077  -1.842  -0.636  1.00  0.00     0.163 HD
ENDBRANCH   6   9
TORSDOF 1
