REMARK SMILES COc1cc2c(cc1O)CCN[C@]21CS[C@@H]2c3c(OC(C)=O)c(C)c4c(c3[C@H](COC1=O)N1[C@@H]2[C@H]2c3c(cc(C)c(OC)c3O)C[C@@H]([C@@H]1O)N2C)OCO4
REMARK SMILES IDX 15 1 14 2 13 3 3 4 4 5 8 6 5 7 7 8 6 9 10 10 12 11 11 12
REMARK SMILES IDX 2 15 1 16 9 17 16 19 34 20 17 21 35 22 33 23 27 24 18 25
REMARK SMILES IDX 50 26 36 27 48 28 28 29 26 30 23 31 47 32 37 33 44 34 25 35
REMARK SMILES IDX 52 36 46 37 38 38 41 39 54 40 53 41 39 42 51 43 24 44 40 45
REMARK SMILES IDX 19 46 20 47 22 48 21 49 49 50 29 52 30 53 31 54 32 55 45 57
REMARK SMILES IDX 42 59 43 60
REMARK H PARENT 12 13 9 18 49 51 45 58
REMARK Flexibility Score:   54.900
ROOT
ATOM      1  S   UNL     1      -0.149   0.260  -1.320  1.00  0.00    -0.149 SA
ENDROOT
BRANCH   1   2
ATOM      2  C   UNL     1       1.437  -0.059  -0.442  1.00  0.00     0.109 C 
BRANCH   2   3
ATOM      3  C   UNL     1       1.568  -1.451   0.290  1.00  0.00     0.152 CG0
ATOM      4  C   UNL     1       5.270  -1.245   1.448  1.00  0.00     0.160 A 
ATOM      5  C   UNL     1       3.900  -1.004   1.336  1.00  0.00     0.057 A 
ATOM      6  C   UNL     1       5.852  -2.226   0.647  1.00  0.00     0.157 A 
ATOM      7  C   UNL     1       3.082  -1.765   0.467  1.00  0.00    -0.009 A 
ATOM      8  C   UNL     1       5.084  -3.001  -0.213  1.00  0.00     0.054 A 
ATOM      9  C   UNL     1       3.704  -2.767  -0.315  1.00  0.00    -0.037 A 
ATOM     10  C   UNL     1       2.908  -3.620  -1.260  1.00  0.00     0.051 C 
ATOM     11  N   UNL     1       0.868  -2.535  -0.477  1.00  0.00    -0.297 NA
ATOM     12  C   UNL     1       1.599  -2.954  -1.661  1.00  0.00     0.087 C 
ATOM     13  H   UNL     1      -0.046  -2.167  -0.763  1.00  0.00     0.124 HD
ATOM     14  G   UNL     1       0.838  -1.350   1.683  1.00  0.00     0.000 G0
BRANCH   4  15
ATOM     15  O   UNL     1       6.133  -0.568   2.271  1.00  0.00    -0.493 OA
ATOM     16  C   UNL     1       5.543   0.056   3.407  1.00  0.00     0.278 C 
ENDBRANCH   4  15
BRANCH   6  17
ATOM     17  O   UNL     1       7.200  -2.456   0.702  1.00  0.00    -0.504 OA
ATOM     18  H   UNL     1       7.545  -1.788   1.324  1.00  0.00     0.293 HD
ENDBRANCH   6  17
ENDBRANCH   2   3
ENDBRANCH   1   2
BRANCH   1  19
ATOM     19  C   UNL     1      -1.067   1.576  -0.376  1.00  0.00     0.100 C 
ATOM     20  C   UNL     1      -2.231   1.146   0.581  1.00  0.00     0.099 C 
ATOM     21  C   UNL     1      -0.147   2.517   0.380  1.00  0.00     0.019 A 
ATOM     22  C   UNL     1      -3.496   0.487  -0.129  1.00  0.00     0.110 C 
ATOM     23  N   UNL     1      -1.685   0.433   1.762  1.00  0.00    -0.260 NA
ATOM     24  C   UNL     1      -0.006   2.359   1.778  1.00  0.00     0.027 A 
ATOM     25  C   UNL     1       0.541   3.567  -0.287  1.00  0.00     0.142 A 
ATOM     26  N   UNL     1      -4.507   0.176   0.932  1.00  0.00    -0.290 NA
ATOM     27  C   UNL     1      -3.212  -0.745  -0.962  1.00  0.00     0.020 A 
ATOM     28  C   UNL     1      -2.743  -0.147   2.603  1.00  0.00     0.203 C 
ATOM     29  C   UNL     1      -0.738   1.263   2.567  1.00  0.00     0.132 C 
ATOM     30  C   UNL     1       0.803   3.285   2.427  1.00  0.00     0.171 A 
ATOM     31  C   UNL     1       1.324   4.508   0.400  1.00  0.00     0.038 A 
ATOM     32  C   UNL     1      -3.899  -0.861   1.819  1.00  0.00     0.105 C 
ATOM     33  C   UNL     1      -3.098  -2.003  -0.342  1.00  0.00    -0.037 A 
ATOM     34  C   UNL     1      -3.083  -0.686  -2.353  1.00  0.00     0.163 A 
ATOM     35  C   UNL     1       1.438   4.320   1.766  1.00  0.00     0.172 A 
ATOM     36  O   UNL     1       1.046   3.308   3.766  1.00  0.00    -0.453 OA
ATOM     37  C   UNL     1      -3.431  -2.156   1.125  1.00  0.00     0.059 C 
ATOM     38  C   UNL     1      -2.766  -3.144  -1.094  1.00  0.00     0.011 A 
ATOM     39  C   UNL     1      -2.792  -1.835  -3.104  1.00  0.00     0.163 A 
ATOM     40  O   UNL     1       2.158   5.103   2.618  1.00  0.00    -0.453 OA
ATOM     41  C   UNL     1       1.914   4.448   3.872  1.00  0.00     0.468 C 
ATOM     42  C   UNL     1      -2.573  -3.067  -2.479  1.00  0.00    -0.005 A 
ATOM     43  C   UNL     1      -5.807  -0.218   0.401  1.00  0.00     0.106 C 
ATOM     44  C   UNL     1       2.036   5.626  -0.293  1.00  0.00     0.053 C 
ATOM     45  C   UNL     1      -2.206  -4.307  -3.238  1.00  0.00     0.048 C 
BRANCH  25  46
ATOM     46  O   UNL     1       0.345   3.720  -1.666  1.00  0.00    -0.426 OA
BRANCH  46  47
ATOM     47  C   UNL     1       1.385   3.204  -2.441  1.00  0.00     0.308 C 
ATOM     48  O   UNL     1       2.444   2.741  -2.039  1.00  0.00    -0.252 OA
ATOM     49  C   UNL     1       0.997   3.307  -3.883  1.00  0.00     0.139 C 
ENDBRANCH  46  47
ENDBRANCH  25  46
BRANCH  28  50
ATOM     50  O   UNL     1      -3.376   0.876   3.375  1.00  0.00    -0.377 OA
ATOM     51  H   UNL     1      -4.025   1.276   2.754  1.00  0.00     0.212 HD
ENDBRANCH  28  50
BRANCH  29  52
ATOM     52  C   UNL     1       0.277   0.330   3.282  1.00  0.00     0.257 C 
BRANCH  52  53
ATOM     53  O   UNL     1       1.202  -0.190   2.315  1.00  0.00    -0.462 OA
BRANCH  53  54
ATOM     54  C   UNL     1       0.838  -1.350   1.683  1.00  0.00     0.331 CG0
ATOM     55  O   UNL     1       0.037  -2.154   2.153  1.00  0.00    -0.250 OA
ATOM     56  G   UNL     1       1.568  -1.451   0.290  1.00  0.00     0.000 G0
ENDBRANCH  53  54
ENDBRANCH  52  53
ENDBRANCH  29  52
BRANCH  34  57
ATOM     57  O   UNL     1      -3.194   0.519  -3.003  1.00  0.00    -0.504 OA
ATOM     58  H   UNL     1      -2.859   0.348  -3.907  1.00  0.00     0.293 HD
ENDBRANCH  34  57
BRANCH  39  59
ATOM     59  O   UNL     1      -2.646  -1.695  -4.465  1.00  0.00    -0.493 OA
ATOM     60  C   UNL     1      -3.887  -2.006  -5.110  1.00  0.00     0.278 C 
ENDBRANCH  39  59
ENDBRANCH   1  19
TORSDOF 7
