REMARK SMILES CC(C)OC(=O)CCC/C=C\C[C@@H]1[C@@H](/C=C/[C@@H](O)COc2cccc(C(F)(F)F)c2)[C@H](O)C[C@@H]1O
REMARK SMILES IDX 12 1 11 2 10 3 9 4 8 5 7 6 5 7 6 8 4 9 2 10 1 11 3 12 13 13
REMARK SMILES IDX 34 14 14 15 33 16 31 17 35 18 15 20 16 21 17 22 18 23 19 25
REMARK SMILES IDX 20 26 21 27 30 28 22 29 25 30 23 31 24 32 26 33 27 34 28 35
REMARK SMILES IDX 29 36 32 37
REMARK H PARENT 35 19 18 24 32 38
ROOT
ATOM      1  C   UNL     1      -1.025   0.020  -0.526  1.00  0.00     0.034 C 
ENDROOT
BRANCH   1   2
ATOM      2  C   UNL     1      -2.316   0.618  -1.019  1.00  0.00    -0.031 C 
ATOM      3  C   UNL     1      -3.550   0.423  -0.527  1.00  0.00    -0.031 C 
BRANCH   3   4
ATOM      4  C   UNL     1      -3.936  -0.409   0.666  1.00  0.00     0.027 C 
BRANCH   4   5
ATOM      5  C   UNL     1      -4.605  -1.736   0.280  1.00  0.00     0.016 C 
BRANCH   5   6
ATOM      6  C   UNL     1      -5.964  -1.583  -0.406  1.00  0.00     0.123 C 
BRANCH   6   7
ATOM      7  C   UNL     1      -7.024  -1.040   0.523  1.00  0.00     0.306 C 
ATOM      8  O   UNL     1      -7.036  -1.187   1.736  1.00  0.00    -0.252 OA
BRANCH   7   9
ATOM      9  O   UNL     1      -7.983  -0.394  -0.200  1.00  0.00    -0.463 OA
BRANCH   9  10
ATOM     10  C   UNL     1      -9.063   0.180   0.560  1.00  0.00     0.170 C 
ATOM     11  C   UNL     1      -9.632   1.330  -0.263  1.00  0.00     0.052 C 
ATOM     12  C   UNL     1     -10.130  -0.879   0.817  1.00  0.00     0.052 C 
ENDBRANCH   9  10
ENDBRANCH   7   9
ENDBRANCH   6   7
ENDBRANCH   5   6
ENDBRANCH   4   5
ENDBRANCH   3   4
ENDBRANCH   1   2
BRANCH   1  13
ATOM     13  C   UNL     1      -0.083   1.087   0.044  1.00  0.00     0.031 C 
ATOM     14  C   UNL     1      -0.557   1.743   1.349  1.00  0.00     0.121 C 
ATOM     15  C   UNL     1       1.294   0.521   0.444  1.00  0.00     0.046 C 
ATOM     16  C   UNL     1       0.690   2.485   1.820  1.00  0.00     0.064 C 
ATOM     17  C   UNL     1       1.844   1.535   1.478  1.00  0.00     0.124 C 
BRANCH  14  18
ATOM     18  O   UNL     1      -0.948   0.780   2.324  1.00  0.00    -0.393 OA
ATOM     19  H   UNL     1      -0.155   0.493   2.815  1.00  0.00     0.210 HD
ENDBRANCH  14  18
BRANCH  15  20
ATOM     20  C   UNL     1       2.236   0.344  -0.721  1.00  0.00    -0.022 C 
ATOM     21  C   UNL     1       2.787  -0.834  -1.063  1.00  0.00     0.004 C 
BRANCH  21  22
ATOM     22  C   UNL     1       3.782  -1.077  -2.176  1.00  0.00     0.174 C 
BRANCH  22  23
ATOM     23  O   UNL     1       4.182   0.158  -2.765  1.00  0.00    -0.385 OA
ATOM     24  H   UNL     1       4.625   0.659  -2.055  1.00  0.00     0.211 HD
ENDBRANCH  22  23
BRANCH  22  25
ATOM     25  C   UNL     1       5.021  -1.862  -1.694  1.00  0.00     0.265 C 
BRANCH  25  26
ATOM     26  O   UNL     1       5.675  -1.185  -0.612  1.00  0.00    -0.491 OA
BRANCH  26  27
ATOM     27  C   UNL     1       6.839  -0.510  -0.841  1.00  0.00     0.120 A 
ATOM     28  C   UNL     1       7.532  -0.154   0.320  1.00  0.00     0.059 A 
ATOM     29  C   UNL     1       7.348  -0.127  -2.081  1.00  0.00     0.046 A 
ATOM     30  C   UNL     1       8.735   0.571   0.260  1.00  0.00     0.059 A 
ATOM     31  C   UNL     1       8.549   0.586  -2.158  1.00  0.00     0.004 A 
ATOM     32  C   UNL     1       9.242   0.928  -0.996  1.00  0.00     0.013 A 
BRANCH  30  33
ATOM     33  C   UNL     1       9.475   0.919   1.526  1.00  0.00     0.416 C 
ATOM     34  F   UNL     1      10.265  -0.101   1.962  1.00  0.00    -0.166 F 
ATOM     35  F   UNL     1      10.297   1.998   1.392  1.00  0.00    -0.166 F 
ATOM     36  F   UNL     1       8.641   1.216   2.563  1.00  0.00    -0.166 F 
ENDBRANCH  30  33
ENDBRANCH  26  27
ENDBRANCH  25  26
ENDBRANCH  22  25
ENDBRANCH  21  22
ENDBRANCH  15  20
BRANCH  17  37
ATOM     37  O   UNL     1       2.235   0.836   2.658  1.00  0.00    -0.392 OA
ATOM     38  H   UNL     1       3.015   0.302   2.420  1.00  0.00     0.210 HD
ENDBRANCH  17  37
ENDBRANCH   1  13
TORSDOF 17
