REMARK SMILES CCCCC[C@H](O)CC[C@@H]1[C@H]2Cc3cccc(OCC(=O)O)c3C[C@H]2C[C@H]1O
REMARK SMILES IDX 8 1 6 2 5 3 4 4 3 5 2 6 1 7 7 8 9 10 10 11 27 12 11 13 26 14
REMARK SMILES IDX 12 15 25 16 13 17 24 18 14 19 23 20 15 21 17 22 16 23 28 24
REMARK SMILES IDX 18 26 19 27 20 28 21 29 22 30
REMARK H PARENT 7 9 28 25 22 31
ROOT
ATOM      1  C   UNL     1       2.006  -0.055  -1.434  1.00  0.00     0.032 C 
ENDROOT
BRANCH   1   2
ATOM      2  C   UNL     1       3.365   0.079  -2.135  1.00  0.00     0.114 C 
BRANCH   2   3
ATOM      3  C   UNL     1       4.563  -0.065  -1.183  1.00  0.00     0.032 C 
BRANCH   3   4
ATOM      4  C   UNL     1       4.595   0.949  -0.033  1.00  0.00     0.003 C 
BRANCH   4   5
ATOM      5  C   UNL     1       5.877   0.873   0.804  1.00  0.00    -0.000 C 
BRANCH   5   6
ATOM      6  C   UNL     1       6.024  -0.441   1.573  1.00  0.00    -0.003 C 
ATOM      7  C   UNL     1       7.244  -0.418   2.481  1.00  0.00     0.004 C 
ENDBRANCH   5   6
ENDBRANCH   4   5
ENDBRANCH   3   4
ENDBRANCH   2   3
BRANCH   2   8
ATOM      8  O   UNL     1       3.440   1.323  -2.826  1.00  0.00    -0.393 OA
ATOM      9  H   UNL     1       3.241   2.035  -2.195  1.00  0.00     0.210 HD
ENDBRANCH   2   8
ENDBRANCH   1   2
BRANCH   1  10
ATOM     10  C   UNL     1       0.849  -0.102  -2.438  1.00  0.00     0.009 C 
BRANCH  10  11
ATOM     11  C   UNL     1      -0.548  -0.091  -1.789  1.00  0.00     0.022 C 
ATOM     12  C   UNL     1      -1.642  -0.105  -2.864  1.00  0.00     0.118 C 
ATOM     13  C   UNL     1      -0.870  -1.331  -0.912  1.00  0.00     0.002 C 
ATOM     14  C   UNL     1      -2.873  -0.544  -2.095  1.00  0.00     0.036 C 
ATOM     15  C   UNL     1      -0.573  -1.116   0.583  1.00  0.00     0.040 C 
ATOM     16  C   UNL     1      -2.354  -1.681  -1.209  1.00  0.00    -0.000 C 
ATOM     17  C   UNL     1      -1.693  -0.423   1.314  1.00  0.00    -0.041 A 
ATOM     18  C   UNL     1      -3.234  -1.905   0.026  1.00  0.00     0.043 C 
ATOM     19  C   UNL     1      -1.433   0.556   2.275  1.00  0.00     0.004 A 
ATOM     20  C   UNL     1      -3.020  -0.823   1.059  1.00  0.00    -0.002 A 
ATOM     21  C   UNL     1      -2.485   1.142   2.972  1.00  0.00     0.004 A 
ATOM     22  C   UNL     1      -4.080  -0.238   1.772  1.00  0.00     0.123 A 
ATOM     23  C   UNL     1      -3.802   0.746   2.726  1.00  0.00     0.047 A 
BRANCH  12  24
ATOM     24  O   UNL     1      -1.849   1.175  -3.433  1.00  0.00    -0.393 OA
ATOM     25  H   UNL     1      -1.044   1.415  -3.922  1.00  0.00     0.210 HD
ENDBRANCH  12  24
BRANCH  22  26
ATOM     26  O   UNL     1      -5.333  -0.706   1.479  1.00  0.00    -0.482 OA
BRANCH  26  27
ATOM     27  C   UNL     1      -6.439   0.040   1.969  1.00  0.00     0.351 C 
BRANCH  27  28
ATOM     28  C   UNL     1      -7.750  -0.496   1.426  1.00  0.00     0.341 C 
ATOM     29  O   UNL     1      -8.823  -0.469   2.010  1.00  0.00    -0.248 OA
BRANCH  28  30
ATOM     30  O   UNL     1      -7.679  -0.974   0.168  1.00  0.00    -0.479 OA
ATOM     31  H   UNL     1      -8.592  -1.263  -0.036  1.00  0.00     0.296 HD
ENDBRANCH  28  30
ENDBRANCH  27  28
ENDBRANCH  26  27
ENDBRANCH  22  26
ENDBRANCH  10  11
ENDBRANCH   1  10
TORSDOF 13
