REMARK SMILES CC1(C)O[C@@H]2C[C@H]3[C@@H]4CCC5=CC(=O)C=C[C@]5(C)[C@@]4(F)[C@@H](O)C[C@]3(C)[C@]2(C(=O)CO)O1
REMARK SMILES IDX 27 1 28 2 26 3 2 4 4 5 31 6 5 7 6 8 24 9 7 10 23 11 8 12
REMARK SMILES IDX 21 13 9 14 19 15 10 16 17 17 11 18 16 19 12 20 15 21 13 22
REMARK SMILES IDX 14 23 1 24 3 25 25 26 20 27 18 28 22 29 29 31 30 32
REMARK H PARENT 22 30 30 33
ROOT
ATOM      1  C   UNL     1      -3.265  -1.208  -1.715  1.00  0.00     0.193 C 
ATOM      2  O   UNL     1      -3.329  -0.691  -2.839  1.00  0.00    -0.294 OA
ENDROOT
BRANCH   1   3
ATOM      3  C   UNL     1      -2.377  -0.619  -0.604  1.00  0.00     0.164 C 
ATOM      4  C   UNL     1      -3.510   0.986   0.592  1.00  0.00     0.164 C 
ATOM      5  O   UNL     1      -3.507  -0.178   1.424  1.00  0.00    -0.344 OA
ATOM      6  O   UNL     1      -2.634   0.793  -0.523  1.00  0.00    -0.333 OA
ATOM      7  C   UNL     1      -2.622  -1.121   0.828  1.00  0.00     0.162 C 
ATOM      8  C   UNL     1      -1.246  -1.139   1.545  1.00  0.00     0.040 C 
ATOM      9  C   UNL     1      -0.859  -0.870  -0.825  1.00  0.00     0.012 C 
ATOM     10  C   UNL     1      -0.335  -0.418   0.561  1.00  0.00     0.008 C 
ATOM     11  C   UNL     1      -0.142  -0.067  -1.931  1.00  0.00     0.045 C 
ATOM     12  C   UNL     1       1.183  -0.506   0.602  1.00  0.00     0.035 C 
ATOM     13  C   UNL     1       0.838   1.031  -1.467  1.00  0.00     0.154 C 
ATOM     14  C   UNL     1       1.782  -0.565   2.006  1.00  0.00     0.012 C 
ATOM     15  C   UNL     1       1.736   0.725  -0.198  1.00  0.00     0.152 C 
ATOM     16  C   UNL     1       3.301  -0.702   1.911  1.00  0.00     0.032 C 
ATOM     17  C   UNL     1       3.311   0.664  -0.326  1.00  0.00     0.044 C 
ATOM     18  C   UNL     1       3.902   0.416   1.090  1.00  0.00    -0.053 C 
ATOM     19  C   UNL     1       3.901   1.949  -0.914  1.00  0.00    -0.009 C 
ATOM     20  C   UNL     1       4.865   1.178   1.641  1.00  0.00     0.052 C 
ATOM     21  C   UNL     1       4.858   2.702  -0.356  1.00  0.00     0.048 C 
ATOM     22  C   UNL     1       5.440   2.345   0.947  1.00  0.00     0.178 C 
ATOM     23  O   UNL     1       6.355   2.993   1.439  1.00  0.00    -0.290 OA
ATOM     24  C   UNL     1      -3.033   2.185   1.402  1.00  0.00     0.075 C 
ATOM     25  C   UNL     1      -4.931   1.220   0.088  1.00  0.00     0.075 C 
ATOM     26  C   UNL     1      -0.618  -2.381  -1.123  1.00  0.00     0.015 C 
ATOM     27  F   UNL     1       1.492   1.822   0.635  1.00  0.00    -0.239 F 
ATOM     28  C   UNL     1       3.758  -0.487  -1.254  1.00  0.00     0.024 C 
BRANCH  13  29
ATOM     29  O   UNL     1       1.577   1.429  -2.622  1.00  0.00    -0.390 OA
ATOM     30  H   UNL     1       0.937   1.786  -3.265  1.00  0.00     0.211 HD
ENDBRANCH  13  29
ENDBRANCH   1   3
BRANCH   1  31
ATOM     31  C   UNL     1      -4.096  -2.450  -1.419  1.00  0.00     0.234 C 
BRANCH  31  32
ATOM     32  O   UNL     1      -4.682  -2.975  -2.603  1.00  0.00    -0.388 OA
ATOM     33  H   UNL     1      -4.759  -2.227  -3.229  1.00  0.00     0.211 HD
ENDBRANCH  31  32
ENDBRANCH   1  31
TORSDOF 4
