REMARK SMILES ClC=C(Cl)Cl
REMARK SMILES IDX 1 1 2 2 3 3 4 4 5 5
REMARK H PARENT
ROOT
ATOM      1  Cl  UNL     1      -1.306  -1.540  -0.761  1.00  0.00    -0.090 Cl
ATOM      2  C   UNL     1       0.013  -0.703  -0.053  1.00  0.00     0.113 C 
ATOM      3  C   UNL     1       0.107   0.619   0.104  1.00  0.00     0.118 C 
ATOM      4  Cl  UNL     1      -1.119   1.725  -0.399  1.00  0.00    -0.070 Cl
ATOM      5  Cl  UNL     1       1.520   1.291   0.844  1.00  0.00    -0.070 Cl
ENDROOT
TORSDOF 0
