REMARK SMILES NS(=O)(=O)c1cc2c(cc1Cl)NC(C(Cl)Cl)NS2(=O)=O
REMARK SMILES IDX 5 1 6 2 7 3 8 4 12 5 13 6 17 7 18 8 19 9 20 10 9 11 10 12
REMARK SMILES IDX 11 13 2 16 3 17 4 18 1 19 14 22 15 23 16 24
REMARK H PARENT 12 14 17 15 1 20 1 21
ROOT
ATOM      1  C   UNL     1       2.229  -0.290   0.704  1.00  0.00     0.102 A 
ATOM      2  C   UNL     1       1.453   0.249  -0.326  1.00  0.00     0.047 A 
ATOM      3  C   UNL     1       0.064   0.089  -0.283  1.00  0.00     0.107 A 
ATOM      4  C   UNL     1      -0.589  -0.550   0.765  1.00  0.00     0.057 A 
ATOM      5  N   UNL     1      -1.968  -0.732   0.783  1.00  0.00    -0.366 N 
ATOM      6  C   UNL     1      -2.868   0.301   0.256  1.00  0.00     0.195 C 
ATOM      7  N   UNL     1      -2.292   1.161  -0.760  1.00  0.00    -0.187 NA
ATOM      8  S   UNL     1      -0.936   0.699  -1.581  1.00  0.00     0.244 S 
ATOM      9  O   UNL     1      -0.342   1.930  -2.056  1.00  0.00    -0.207 OA
ATOM     10  O   UNL     1      -1.239  -0.395  -2.470  1.00  0.00    -0.207 OA
ATOM     11  C   UNL     1       0.211  -1.119   1.763  1.00  0.00     0.049 A 
ATOM     12  C   UNL     1       1.611  -0.983   1.748  1.00  0.00     0.063 A 
ATOM     13  Cl  UNL     1       2.474  -1.696   3.062  1.00  0.00    -0.083 Cl
ATOM     14  H   UNL     1      -2.306  -1.130   1.658  1.00  0.00     0.162 HD
ATOM     15  H   UNL     1      -2.401   2.168  -0.663  1.00  0.00     0.143 HD
ENDROOT
BRANCH   1  16
ATOM     16  S   UNL     1       3.982  -0.111   0.686  1.00  0.00     0.239 S 
ATOM     17  O   UNL     1       4.581  -1.410   0.501  1.00  0.00    -0.207 OA
ATOM     18  O   UNL     1       4.358   0.802   1.740  1.00  0.00    -0.207 OA
BRANCH  16  19
ATOM     19  N   UNL     1       4.314   0.719  -0.740  1.00  0.00    -0.225 NA
ATOM     20  H   UNL     1       4.889   0.129  -1.346  1.00  0.00     0.137 HD
ATOM     21  H   UNL     1       4.756   1.613  -0.516  1.00  0.00     0.137 HD
ENDBRANCH  16  19
ENDBRANCH   1  16
BRANCH   6  22
ATOM     22  C   UNL     1      -4.260  -0.284  -0.152  1.00  0.00     0.210 C 
ATOM     23  Cl  UNL     1      -5.445   1.026  -0.454  1.00  0.00    -0.102 Cl
ATOM     24  Cl  UNL     1      -4.213  -1.381  -1.551  1.00  0.00    -0.102 Cl
ENDBRANCH   6  22
TORSDOF 3
