REMARK SMILES O=P(O)(O)OCC(Cl)(Cl)Cl
REMARK SMILES IDX 5 1 2 2 1 3 3 4 4 6 6 8 7 9 8 10 9 11 10 12
REMARK H PARENT 3 5 4 7
ROOT
ATOM      1  O   UNL     1      -0.184   0.324  -0.630  1.00  0.00    -0.283 OA
ENDROOT
BRANCH   1   2
ATOM      2  P   UNL     1      -1.615  -0.208  -0.165  1.00  0.00     0.469 P 
ATOM      3  O   UNL     1      -2.050  -1.511  -0.736  1.00  0.00    -0.228 OA
BRANCH   2   4
ATOM      4  O   UNL     1      -2.612   0.983  -0.523  1.00  0.00    -0.303 OA
ATOM      5  H   UNL     1      -3.051   0.813  -1.378  1.00  0.00     0.223 HD
ENDBRANCH   2   4
BRANCH   2   6
ATOM      6  O   UNL     1      -1.588  -0.117   1.423  1.00  0.00    -0.303 OA
ATOM      7  H   UNL     1      -1.586   0.810   1.724  1.00  0.00     0.223 HD
ENDBRANCH   2   6
ENDBRANCH   1   2
BRANCH   1   8
ATOM      8  C   UNL     1       0.932  -0.533  -0.386  1.00  0.00     0.229 C 
BRANCH   8   9
ATOM      9  C   UNL     1       2.113   0.220   0.248  1.00  0.00     0.214 C 
ATOM     10  Cl  UNL     1       3.462  -0.921   0.545  1.00  0.00    -0.081 Cl
ATOM     11  Cl  UNL     1       1.631   0.956   1.809  1.00  0.00    -0.081 Cl
ATOM     12  Cl  UNL     1       2.695   1.516  -0.843  1.00  0.00    -0.081 Cl
ENDBRANCH   8   9
ENDBRANCH   1   8
TORSDOF 5
