REMARK SMILES O=C(CCCN1CCC(O)(c2cccc(C(F)(F)F)c2)CC1)c1ccc(F)cc1
REMARK SMILES IDX 5 1 6 2 9 3 8 4 21 5 7 6 22 7 10 8 11 10 20 11 12 12 15 13
REMARK SMILES IDX 13 14 14 15 16 16 17 17 18 18 19 19 4 20 3 21 2 22 1 23
REMARK SMILES IDX 23 24 24 25 29 26 25 27 28 28 26 29 27 30
REMARK H PARENT 10 9
ROOT
ATOM      1  C   UNL     1       1.273   0.320  -0.626  1.00  0.00     0.085 C 
ENDROOT
BRANCH   1   2
ATOM      2  N   UNL     1       0.069   0.813  -1.316  1.00  0.00    -0.303 NA
ATOM      3  C   UNL     1      -2.835  -0.035  -1.407  1.00  0.00     0.092 C 
ATOM      4  C   UNL     1      -2.337   1.379  -1.022  1.00  0.00     0.056 C 
ATOM      5  C   UNL     1      -1.637  -0.969  -1.688  1.00  0.00     0.056 C 
ATOM      6  C   UNL     1      -0.948   1.329  -0.388  1.00  0.00     0.088 C 
ATOM      7  C   UNL     1      -0.465  -0.177  -2.267  1.00  0.00     0.088 C 
BRANCH   3   8
ATOM      8  O   UNL     1      -3.537   0.102  -2.661  1.00  0.00    -0.385 OA
ATOM      9  H   UNL     1      -4.119  -0.672  -2.755  1.00  0.00     0.211 HD
ENDBRANCH   3   8
BRANCH   3  10
ATOM     10  C   UNL     1      -3.872  -0.568  -0.407  1.00  0.00    -0.016 A 
ATOM     11  C   UNL     1      -5.086   0.137  -0.245  1.00  0.00     0.019 A 
ATOM     12  C   UNL     1      -3.700  -1.736   0.348  1.00  0.00     0.007 A 
ATOM     13  C   UNL     1      -6.088  -0.294   0.642  1.00  0.00     0.056 A 
ATOM     14  C   UNL     1      -4.685  -2.172   1.241  1.00  0.00     0.001 A 
ATOM     15  C   UNL     1      -5.869  -1.454   1.392  1.00  0.00     0.013 A 
BRANCH  13  16
ATOM     16  C   UNL     1      -7.358   0.505   0.804  1.00  0.00     0.416 C 
ATOM     17  F   UNL     1      -7.201   1.563   1.646  1.00  0.00    -0.166 F 
ATOM     18  F   UNL     1      -7.812   1.025  -0.371  1.00  0.00    -0.166 F 
ATOM     19  F   UNL     1      -8.392  -0.224   1.310  1.00  0.00    -0.166 F 
ENDBRANCH  13  16
ENDBRANCH   3  10
ENDBRANCH   1   2
BRANCH   1  20
ATOM     20  C   UNL     1       2.016   1.421   0.149  1.00  0.00     0.024 C 
BRANCH  20  21
ATOM     21  C   UNL     1       3.246   0.889   0.890  1.00  0.00     0.082 C 
BRANCH  21  22
ATOM     22  C   UNL     1       4.413   0.537  -0.020  1.00  0.00     0.162 C 
ATOM     23  O   UNL     1       4.389   0.735  -1.232  1.00  0.00    -0.294 OA
BRANCH  22  24
ATOM     24  C   UNL     1       5.638  -0.070   0.589  1.00  0.00     0.018 A 
ATOM     25  C   UNL     1       6.676  -0.475  -0.266  1.00  0.00     0.015 A 
ATOM     26  C   UNL     1       5.782  -0.245   1.973  1.00  0.00     0.015 A 
ATOM     27  C   UNL     1       7.839  -1.048   0.254  1.00  0.00     0.040 A 
ATOM     28  C   UNL     1       6.948  -0.819   2.490  1.00  0.00     0.040 A 
ATOM     29  C   UNL     1       7.963  -1.216   1.627  1.00  0.00     0.123 A 
ATOM     30  F   UNL     1       9.076  -1.766   2.128  1.00  0.00    -0.207 F 
ENDBRANCH  22  24
ENDBRANCH  21  22
ENDBRANCH  20  21
ENDBRANCH   1  20
TORSDOF 8
