REMARK SMILES OC(CCN1CCCCC1)(c1ccccc1)C1CCCCC1
REMARK SMILES IDX 2 1 1 2 3 4 4 5 5 6 6 7 10 8 7 9 9 10 8 11 17 12 18 13 22 14
REMARK SMILES IDX 19 15 21 16 20 17 11 18 12 19 16 20 13 21 15 22 14 23
REMARK H PARENT 1 3
ROOT
ATOM      1  C   UNL     1      -1.054   0.036   0.497  1.00  0.00     0.094 C 
ENDROOT
BRANCH   1   2
ATOM      2  O   UNL     1      -1.176   0.321   1.899  1.00  0.00    -0.385 OA
ATOM      3  H   UNL     1      -0.794   1.199   2.063  1.00  0.00     0.211 HD
ENDBRANCH   1   2
BRANCH   1   4
ATOM      4  C   UNL     1       0.403   0.378   0.064  1.00  0.00     0.056 C 
BRANCH   4   5
ATOM      5  C   UNL     1       1.476  -0.453   0.794  1.00  0.00     0.088 C 
BRANCH   5   6
ATOM      6  N   UNL     1       2.840   0.020   0.489  1.00  0.00    -0.303 NA
ATOM      7  C   UNL     1       3.788  -0.472   1.509  1.00  0.00     0.084 C 
ATOM      8  C   UNL     1       3.287  -0.345  -0.857  1.00  0.00     0.084 C 
ATOM      9  C   UNL     1       5.250  -0.514   1.043  1.00  0.00     0.016 C 
ATOM     10  C   UNL     1       4.585   0.398  -1.201  1.00  0.00     0.016 C 
ATOM     11  C   UNL     1       5.531   0.549  -0.008  1.00  0.00     0.003 C 
ENDBRANCH   5   6
ENDBRANCH   4   5
ENDBRANCH   1   4
BRANCH   1  12
ATOM     12  C   UNL     1      -2.109   0.919  -0.268  1.00  0.00     0.025 C 
ATOM     13  C   UNL     1      -3.551   0.697   0.234  1.00  0.00     0.007 C 
ATOM     14  C   UNL     1      -1.789   2.436  -0.227  1.00  0.00     0.007 C 
ATOM     15  C   UNL     1      -4.583   1.393  -0.660  1.00  0.00     0.000 C 
ATOM     16  C   UNL     1      -2.999   3.341  -0.483  1.00  0.00     0.000 C 
ATOM     17  C   UNL     1      -4.056   2.657  -1.334  1.00  0.00     0.000 C 
ENDBRANCH   1  12
BRANCH   1  18
ATOM     18  C   UNL     1      -1.336  -1.457   0.257  1.00  0.00    -0.016 A 
ATOM     19  C   UNL     1      -1.254  -2.010  -1.035  1.00  0.00     0.007 A 
ATOM     20  C   UNL     1      -1.677  -2.317   1.316  1.00  0.00     0.007 A 
ATOM     21  C   UNL     1      -1.502  -3.367  -1.258  1.00  0.00     0.000 A 
ATOM     22  C   UNL     1      -1.926  -3.674   1.093  1.00  0.00     0.000 A 
ATOM     23  C   UNL     1      -1.838  -4.198  -0.194  1.00  0.00     0.000 A 
ENDBRANCH   1  18
TORSDOF 6
