REMARK SMILES C[C@]12CC[C@H]3[C@@H](CC[C@@]45O[C@@H]4C(O)=C(C#N)C[C@]35C)[C@@H]1CC[C@@H]2O
REMARK SMILES IDX 1 1 2 2 3 3 4 4 5 5 6 6 7 7 8 8 9 9 10 10 11 11 12 12 14 13
REMARK SMILES IDX 17 14 18 15 19 16 15 17 16 18 20 19 21 20 22 21 23 22 24 23
REMARK SMILES IDX 13 25
REMARK H PARENT 24 24 13 26
ROOT
ATOM      1  C   UNL     1      -2.441   2.198  -0.383  1.00  0.00     0.014 C 
ATOM      2  C   UNL     1      -2.522   0.971   0.560  1.00  0.00    -0.003 C 
ATOM      3  C   UNL     1      -1.632   1.209   1.787  1.00  0.00     0.010 C 
ATOM      4  C   UNL     1      -0.138   1.200   1.414  1.00  0.00     0.005 C 
ATOM      5  C   UNL     1       0.292  -0.060   0.619  1.00  0.00     0.002 C 
ATOM      6  C   UNL     1      -0.658  -0.347  -0.593  1.00  0.00    -0.003 C 
ATOM      7  C   UNL     1      -0.286  -1.672  -1.282  1.00  0.00     0.007 C 
ATOM      8  C   UNL     1       1.179  -1.698  -1.714  1.00  0.00     0.040 C 
ATOM      9  C   UNL     1       2.072  -1.383  -0.547  1.00  0.00     0.109 C 
ATOM     10  O   UNL     1       2.286  -2.531   0.291  1.00  0.00    -0.357 OA
ATOM     11  C   UNL     1       3.438  -2.032  -0.412  1.00  0.00     0.218 C 
ATOM     12  C   UNL     1       4.489  -1.276   0.302  1.00  0.00     0.138 C 
ATOM     13  C   UNL     1       4.181  -0.307   1.190  1.00  0.00     0.070 C 
ATOM     14  C   UNL     1       2.729   0.040   1.455  1.00  0.00     0.061 C 
ATOM     15  C   UNL     1       1.805  -0.068   0.196  1.00  0.00     0.008 C 
ATOM     16  C   UNL     1       2.149   1.118  -0.743  1.00  0.00     0.015 C 
ATOM     17  C   UNL     1       5.191   0.408   1.898  1.00  0.00     0.098 C 
ATOM     18  N   UNL     1       5.973   1.023   2.496  1.00  0.00    -0.193 NA
ATOM     19  C   UNL     1      -2.103  -0.365  -0.084  1.00  0.00     0.001 C 
ATOM     20  C   UNL     1      -3.233  -0.657  -1.067  1.00  0.00     0.007 C 
ATOM     21  C   UNL     1      -4.490  -0.117  -0.362  1.00  0.00     0.032 C 
ATOM     22  C   UNL     1      -3.993   0.641   0.884  1.00  0.00     0.120 C 
ENDROOT
BRANCH  22  23
ATOM     23  O   UNL     1      -4.791   1.782   1.132  1.00  0.00    -0.393 OA
ATOM     24  H   UNL     1      -4.420   2.235   1.908  1.00  0.00     0.210 HD
ENDBRANCH  22  23
BRANCH  12  25
ATOM     25  O   UNL     1       5.817  -1.596   0.072  1.00  0.00    -0.508 OA
ATOM     26  H   UNL     1       5.857  -2.438  -0.413  1.00  0.00     0.293 HD
ENDBRANCH  12  25
TORSDOF 2
