REMARK SMILES COc1cc(Cc2cnc(N)nc2N)cc(OC)c1OC
REMARK SMILES IDX 6 1 5 2 3 3 4 4 19 5 16 6 15 7 2 8 1 9 20 10 21 11 17 12
REMARK SMILES IDX 18 13 7 14 8 15 13 16 9 17 12 18 10 19 14 20 11 23
REMARK H PARENT 14 21 14 22 11 24 11 25
ROOT
ATOM      1  C   UNL     1       0.934  -1.887   0.332  1.00  0.00     0.076 C 
ENDROOT
BRANCH   1   2
ATOM      2  C   UNL     1      -0.324  -1.047   0.283  1.00  0.00    -0.036 A 
ATOM      3  C   UNL     1      -2.220  -0.018   1.411  1.00  0.00     0.164 A 
ATOM      4  C   UNL     1      -1.061  -0.797   1.452  1.00  0.00     0.054 A 
ATOM      5  C   UNL     1      -2.627   0.530   0.182  1.00  0.00     0.203 A 
ATOM      6  C   UNL     1      -1.914   0.279  -1.003  1.00  0.00     0.164 A 
ATOM      7  C   UNL     1      -0.762  -0.507  -0.939  1.00  0.00     0.054 A 
BRANCH   3   8
ATOM      8  O   UNL     1      -3.003   0.280   2.497  1.00  0.00    -0.493 OA
ATOM      9  C   UNL     1      -2.726  -0.402   3.711  1.00  0.00     0.278 C 
ENDBRANCH   3   8
BRANCH   5  10
ATOM     10  O   UNL     1      -3.790   1.267   0.127  1.00  0.00    -0.490 OA
ATOM     11  C   UNL     1      -3.492   2.650   0.314  1.00  0.00     0.278 C 
ENDBRANCH   5  10
BRANCH   6  12
ATOM     12  O   UNL     1      -2.415   0.845  -2.147  1.00  0.00    -0.493 OA
ATOM     13  C   UNL     1      -1.721   0.592  -3.360  1.00  0.00     0.278 C 
ENDBRANCH   6  12
ENDBRANCH   1   2
BRANCH   1  14
ATOM     14  C   UNL     1       2.193  -1.098   0.127  1.00  0.00     0.017 A 
ATOM     15  C   UNL     1       2.697  -0.295   1.131  1.00  0.00     0.123 A 
ATOM     16  C   UNL     1       2.913  -1.063  -1.052  1.00  0.00     0.132 A 
ATOM     17  N   UNL     1       3.803   0.460   1.009  1.00  0.00    -0.221 NA
ATOM     18  N   UNL     1       4.009  -0.309  -1.218  1.00  0.00    -0.196 NA
ATOM     19  C   UNL     1       4.420   0.410  -0.171  1.00  0.00     0.221 A 
BRANCH  16  20
ATOM     20  N   UNL     1       2.529  -1.796  -2.177  1.00  0.00    -0.383 N 
ATOM     21  H   UNL     1       3.232  -1.614  -2.892  1.00  0.00     0.158 HD
ATOM     22  H   UNL     1       2.476  -2.788  -1.974  1.00  0.00     0.158 HD
ENDBRANCH  16  20
BRANCH  19  23
ATOM     23  N   UNL     1       5.542   1.196  -0.334  1.00  0.00    -0.368 N 
ATOM     24  H   UNL     1       5.653   1.426  -1.311  1.00  0.00     0.159 HD
ATOM     25  H   UNL     1       5.508   1.964   0.320  1.00  0.00     0.159 HD
ENDBRANCH  19  23
ENDBRANCH   1  14
TORSDOF 7
