REMARK SMILES Cc1cc2cc3c(C)cc(=O)oc3c(C)c2o1
REMARK SMILES IDX 1 1 2 2 3 3 4 4 5 5 6 6 13 7 12 8 10 9 11 10 9 11 7 12 8 13
REMARK SMILES IDX 14 14 15 15 16 16 17 17
REMARK H PARENT
ROOT
ATOM      1  C   UNL     1      -4.678   0.922   0.326  1.00  0.00     0.087 C 
ATOM      2  C   UNL     1      -3.213   0.807   0.193  1.00  0.00     0.102 A 
ATOM      3  C   UNL     1      -2.197   1.725   0.037  1.00  0.00     0.054 A 
ATOM      4  C   UNL     1      -0.988   0.983  -0.030  1.00  0.00     0.022 A 
ATOM      5  C   UNL     1       0.375   1.306  -0.181  1.00  0.00     0.024 A 
ATOM      6  C   UNL     1       1.334   0.279  -0.205  1.00  0.00     0.022 A 
ATOM      7  C   UNL     1       0.897  -1.048  -0.077  1.00  0.00     0.145 A 
ATOM      8  O   UNL     1       1.835  -2.112  -0.097  1.00  0.00    -0.422 OA
ATOM      9  C   UNL     1       3.192  -1.893  -0.241  1.00  0.00     0.336 C 
ATOM     10  O   UNL     1       4.010  -2.806  -0.259  1.00  0.00    -0.246 OA
ATOM     11  C   UNL     1       3.621  -0.495  -0.373  1.00  0.00     0.098 C 
ATOM     12  C   UNL     1       2.774   0.544  -0.360  1.00  0.00    -0.033 C 
ATOM     13  C   UNL     1       3.274   1.952  -0.500  1.00  0.00     0.045 C 
ATOM     14  C   UNL     1      -0.454  -1.425   0.076  1.00  0.00     0.036 A 
ATOM     15  C   UNL     1      -0.870  -2.855   0.209  1.00  0.00     0.052 C 
ATOM     16  C   UNL     1      -1.350  -0.353   0.092  1.00  0.00     0.140 A 
ATOM     17  O   UNL     1      -2.704  -0.456   0.227  1.00  0.00    -0.461 OA
ENDROOT
TORSDOF 0
