REMARK SMILES CCOc1c(N)c2c(c(OCC)c1OCC)C(C1c3c(cc4c(c3OC)OCO4)CCN1C)OC2=O
REMARK SMILES IDX 9 1 13 2 4 3 5 4 7 5 8 6 17 7 34 8 35 9 36 10 10 11 11 12
REMARK SMILES IDX 12 13 14 14 15 15 16 16 3 17 2 18 1 19 18 20 32 21 19 22
REMARK SMILES IDX 31 23 20 24 24 25 30 26 21 27 23 28 22 29 27 30 29 31 28 32
REMARK SMILES IDX 33 33 25 34 26 35 6 36
REMARK H PARENT 6 37 6 38
ROOT
ATOM      1  C   UNL     1      -1.121   0.082  -0.451  1.00  0.00     0.173 A 
ATOM      2  C   UNL     1      -2.519   0.149  -0.298  1.00  0.00     0.206 A 
ATOM      3  C   UNL     1      -3.338  -0.918  -0.712  1.00  0.00     0.189 A 
ATOM      4  C   UNL     1      -2.801  -2.012  -1.404  1.00  0.00     0.094 A 
ATOM      5  C   UNL     1      -1.417  -2.016  -1.566  1.00  0.00     0.097 A 
ATOM      6  C   UNL     1      -0.576  -1.002  -1.124  1.00  0.00     0.057 A 
ATOM      7  C   UNL     1       0.835  -1.323  -1.509  1.00  0.00     0.234 C 
ATOM      8  O   UNL     1       0.652  -2.582  -2.242  1.00  0.00    -0.452 OA
ATOM      9  C   UNL     1      -0.630  -3.018  -2.266  1.00  0.00     0.341 C 
ATOM     10  O   UNL     1      -1.046  -4.019  -2.817  1.00  0.00    -0.246 OA
ENDROOT
BRANCH   1  11
ATOM     11  O   UNL     1      -0.297   1.093  -0.055  1.00  0.00    -0.489 OA
BRANCH  11  12
ATOM     12  C   UNL     1      -0.339   1.361   1.353  1.00  0.00     0.226 C 
ATOM     13  C   UNL     1      -0.203   2.859   1.554  1.00  0.00     0.049 C 
ENDBRANCH  11  12
ENDBRANCH   1  11
BRANCH   2  14
ATOM     14  O   UNL     1      -3.092   1.254   0.286  1.00  0.00    -0.487 OA
BRANCH  14  15
ATOM     15  C   UNL     1      -3.492   2.190  -0.723  1.00  0.00     0.226 C 
ATOM     16  C   UNL     1      -4.261   3.306  -0.041  1.00  0.00     0.049 C 
ENDBRANCH  14  15
ENDBRANCH   2  14
BRANCH   3  17
ATOM     17  O   UNL     1      -4.704  -0.892  -0.537  1.00  0.00    -0.488 OA
BRANCH  17  18
ATOM     18  C   UNL     1      -5.048  -1.030   0.847  1.00  0.00     0.226 C 
ATOM     19  C   UNL     1      -6.445  -1.621   0.922  1.00  0.00     0.049 C 
ENDBRANCH  17  18
ENDBRANCH   3  17
BRANCH   7  20
ATOM     20  C   UNL     1       1.832  -1.553  -0.309  1.00  0.00     0.137 C 
ATOM     21  N   UNL     1       2.722  -2.748  -0.463  1.00  0.00    -0.295 NA
ATOM     22  C   UNL     1       2.652  -0.389   0.282  1.00  0.00     0.023 A 
ATOM     23  C   UNL     1       3.428  -3.103   0.790  1.00  0.00     0.089 C 
ATOM     24  C   UNL     1       3.309  -0.716   1.512  1.00  0.00    -0.034 A 
ATOM     25  C   UNL     1       2.829   0.895  -0.273  1.00  0.00     0.170 A 
ATOM     26  C   UNL     1       3.223  -2.149   1.984  1.00  0.00     0.051 C 
ATOM     27  C   UNL     1       4.030   0.235   2.233  1.00  0.00     0.055 A 
ATOM     28  C   UNL     1       3.571   1.815   0.464  1.00  0.00     0.207 A 
ATOM     29  C   UNL     1       4.135   1.490   1.682  1.00  0.00     0.169 A 
ATOM     30  O   UNL     1       3.859   3.107   0.129  1.00  0.00    -0.450 OA
ATOM     31  O   UNL     1       4.819   2.522   2.248  1.00  0.00    -0.453 OA
ATOM     32  C   UNL     1       4.637   3.544   1.257  1.00  0.00     0.468 C 
ATOM     33  C   UNL     1       3.665  -2.606  -1.576  1.00  0.00     0.106 C 
BRANCH  25  34
ATOM     34  O   UNL     1       2.283   1.116  -1.500  1.00  0.00    -0.492 OA
ATOM     35  C   UNL     1       2.298   2.433  -2.031  1.00  0.00     0.278 C 
ENDBRANCH  25  34
ENDBRANCH   7  20
BRANCH   4  36
ATOM     36  N   UNL     1      -3.598  -3.127  -1.705  1.00  0.00    -0.395 N 
ATOM     37  H   UNL     1      -4.571  -2.880  -1.872  1.00  0.00     0.156 HD
ATOM     38  H   UNL     1      -3.198  -3.740  -2.420  1.00  0.00     0.156 HD
ENDBRANCH   4  36
TORSDOF 9
