REMARK SMILES OCCN(CCO)CCO
REMARK SMILES IDX 4 1 3 2 2 3 1 4 5 6 6 7 7 8 8 10 9 11 10 12
REMARK H PARENT 1 5 7 9 10 13
ROOT
ATOM      1  N   UNL     1      -0.250  -0.362   0.380  1.00  0.00    -0.297 NA
ENDROOT
BRANCH   1   2
ATOM      2  C   UNL     1       0.977  -0.765  -0.344  1.00  0.00     0.113 C 
BRANCH   2   3
ATOM      3  C   UNL     1       2.281  -0.664   0.471  1.00  0.00     0.171 C 
BRANCH   3   4
ATOM      4  O   UNL     1       2.785   0.670   0.485  1.00  0.00    -0.395 OA
ATOM      5  H   UNL     1       3.610   0.648   1.001  1.00  0.00     0.210 HD
ENDBRANCH   3   4
ENDBRANCH   2   3
ENDBRANCH   1   2
BRANCH   1   6
ATOM      6  C   UNL     1      -0.189   1.016   0.907  1.00  0.00     0.113 C 
BRANCH   6   7
ATOM      7  C   UNL     1      -0.055   2.163  -0.109  1.00  0.00     0.171 C 
BRANCH   7   8
ATOM      8  O   UNL     1       0.133   3.402   0.574  1.00  0.00    -0.395 OA
ATOM      9  H   UNL     1       1.015   3.353   0.986  1.00  0.00     0.210 HD
ENDBRANCH   7   8
ENDBRANCH   6   7
ENDBRANCH   1   6
BRANCH   1  10
ATOM     10  C   UNL     1      -1.456  -0.552  -0.449  1.00  0.00     0.113 C 
BRANCH  10  11
ATOM     11  C   UNL     1      -1.826  -2.025  -0.688  1.00  0.00     0.171 C 
BRANCH  11  12
ATOM     12  O   UNL     1      -3.091  -2.119  -1.340  1.00  0.00    -0.395 OA
ATOM     13  H   UNL     1      -3.761  -1.790  -0.716  1.00  0.00     0.210 HD
ENDBRANCH  11  12
ENDBRANCH  10  11
ENDBRANCH   1  10
TORSDOF 9
