REMARK SMILES CCCC(=O)Nc1c(I)cc(I)c(CC(CC)C(=O)O)c1I
REMARK SMILES IDX 7 1 8 2 9 3 10 4 11 5 12 6 13 7 21 8 22 9 6 10 4 11 5 12
REMARK SMILES IDX 3 14 2 15 1 16 14 17 15 18 16 19 17 20 18 21 19 22 20 23
REMARK H PARENT 6 13 20 24
ROOT
ATOM      1  C   UNL     1       0.928   0.701   0.208  1.00  0.00     0.068 A 
ATOM      2  C   UNL     1       0.806   2.042   0.596  1.00  0.00     0.039 A 
ATOM      3  I   UNL     1       2.209   3.060   1.807  1.00  0.00    -0.042 I 
ATOM      4  C   UNL     1      -0.365   2.749   0.313  1.00  0.00     0.032 A 
ATOM      5  C   UNL     1      -1.452   2.119  -0.308  1.00  0.00     0.018 A 
ATOM      6  I   UNL     1      -3.092   3.400  -0.696  1.00  0.00    -0.044 I 
ATOM      7  C   UNL     1      -1.418   0.745  -0.629  1.00  0.00    -0.018 A 
ATOM      8  C   UNL     1      -0.199   0.055  -0.368  1.00  0.00     0.042 A 
ATOM      9  I   UNL     1       0.041  -2.023  -0.933  1.00  0.00    -0.042 I 
ENDROOT
BRANCH   1  10
ATOM     10  N   UNL     1       2.121  -0.046   0.410  1.00  0.00    -0.324 N 
ATOM     11  C   UNL     1       3.339   0.359  -0.127  1.00  0.00     0.224 C 
ATOM     12  O   UNL     1       3.513   1.365  -0.805  1.00  0.00    -0.275 OA
ATOM     13  H   UNL     1       1.998  -1.054   0.394  1.00  0.00     0.170 HD
BRANCH  11  14
ATOM     14  C   UNL     1       4.443  -0.640   0.176  1.00  0.00     0.100 C 
BRANCH  14  15
ATOM     15  C   UNL     1       5.809  -0.155  -0.300  1.00  0.00     0.006 C 
ATOM     16  C   UNL     1       6.903  -1.158   0.030  1.00  0.00     0.004 C 
ENDBRANCH  14  15
ENDBRANCH  11  14
ENDBRANCH   1  10
BRANCH   7  17
ATOM     17  C   UNL     1      -2.625   0.034  -1.224  1.00  0.00     0.053 C 
BRANCH  17  18
ATOM     18  C   UNL     1      -3.429  -0.820  -0.220  1.00  0.00     0.103 C 
BRANCH  18  19
ATOM     19  C   UNL     1      -4.260   0.010   0.772  1.00  0.00     0.012 C 
ATOM     20  C   UNL     1      -4.969  -0.851   1.812  1.00  0.00     0.005 C 
ENDBRANCH  18  19
BRANCH  18  21
ATOM     21  C   UNL     1      -4.306  -1.765  -1.010  1.00  0.00     0.306 C 
ATOM     22  O   UNL     1      -4.189  -2.979  -1.050  1.00  0.00    -0.252 OA
BRANCH  21  23
ATOM     23  O   UNL     1      -5.268  -1.148  -1.720  1.00  0.00    -0.481 OA
ATOM     24  H   UNL     1      -5.744  -1.880  -2.168  1.00  0.00     0.296 HD
ENDBRANCH  21  23
ENDBRANCH  18  21
ENDBRANCH  17  18
ENDBRANCH   7  17
TORSDOF 8
