REMARK SMILES CC(=O)O[C@]1(C(C)=O)CC[C@H]2[C@@H]3CCC4=CC(=O)CCC4=C3[C@@H](c3ccc(N(C)C)cc3)C[C@@]21C
REMARK SMILES IDX 23 1 33 2 34 3 35 4 11 5 10 6 9 7 5 8 12 9 13 10 14 11 15 12
REMARK SMILES IDX 16 13 17 14 18 15 19 16 20 17 21 18 22 19 24 20 27 21 26 22
REMARK SMILES IDX 31 23 25 24 32 25 28 26 29 27 30 28 4 29 2 30 3 31 1 32 6 33
REMARK SMILES IDX 8 34 7 35
REMARK H PARENT
ROOT
ATOM      1  C   UNL     1       0.871   0.249  -0.378  1.00  0.00     0.046 C 
ATOM      2  C   UNL     1       0.009  -0.852  -1.071  1.00  0.00     0.024 C 
ATOM      3  C   UNL     1      -1.419  -1.018  -0.521  1.00  0.00     0.019 C 
ATOM      4  C   UNL     1      -1.353  -1.594   0.918  1.00  0.00     0.016 C 
ATOM      5  C   UNL     1      -2.071   0.390  -0.561  1.00  0.00     0.007 C 
ATOM      6  C   UNL     1      -3.538   0.109  -0.250  1.00  0.00     0.009 C 
ATOM      7  C   UNL     1      -3.812  -1.268  -0.879  1.00  0.00     0.058 C 
ATOM      8  C   UNL     1      -2.450  -1.812  -1.431  1.00  0.00     0.175 C 
ATOM      9  C   UNL     1      -1.349   1.454   0.275  1.00  0.00     0.020 C 
ATOM     10  C   UNL     1      -2.138   2.778   0.228  1.00  0.00     0.013 C 
ATOM     11  C   UNL     1      -1.264   3.954   0.633  1.00  0.00     0.036 C 
ATOM     12  C   UNL     1      -0.104   4.022  -0.318  1.00  0.00    -0.041 C 
ATOM     13  C   UNL     1       0.182   5.138  -1.008  1.00  0.00     0.051 C 
ATOM     14  C   UNL     1       1.264   5.146  -2.025  1.00  0.00     0.156 C 
ATOM     15  O   UNL     1       1.406   6.127  -2.753  1.00  0.00    -0.295 OA
ATOM     16  C   UNL     1       2.095   3.897  -2.205  1.00  0.00     0.085 C 
ATOM     17  C   UNL     1       2.087   3.052  -0.937  1.00  0.00     0.044 C 
ATOM     18  C   UNL     1       0.664   2.787  -0.487  1.00  0.00    -0.044 C 
ATOM     19  C   UNL     1       0.112   1.579  -0.207  1.00  0.00    -0.056 C 
ENDROOT
BRANCH   1  20
ATOM     20  C   UNL     1       1.642  -0.225   0.852  1.00  0.00    -0.041 A 
ATOM     21  C   UNL     1       3.197  -1.175   3.095  1.00  0.00     0.036 A 
ATOM     22  C   UNL     1       3.349  -1.706   1.807  1.00  0.00     0.026 A 
ATOM     23  C   UNL     1       2.270  -0.123   3.207  1.00  0.00     0.026 A 
ATOM     24  C   UNL     1       2.587  -1.250   0.714  1.00  0.00     0.006 A 
ATOM     25  C   UNL     1       1.511   0.343   2.120  1.00  0.00     0.006 A 
BRANCH  21  26
ATOM     26  N   UNL     1       3.942  -1.623   4.195  1.00  0.00    -0.378 N 
ATOM     27  C   UNL     1       3.357  -1.436   5.526  1.00  0.00     0.143 C 
ATOM     28  C   UNL     1       4.748  -2.833   4.050  1.00  0.00     0.143 C 
ENDBRANCH  21  26
ENDBRANCH   1  20
BRANCH   8  29
ATOM     29  O   UNL     1      -2.418  -1.325  -2.797  1.00  0.00    -0.451 OA
BRANCH  29  30
ATOM     30  C   UNL     1      -1.519  -1.834  -3.679  1.00  0.00     0.303 C 
ATOM     31  O   UNL     1      -0.754  -2.759  -3.464  1.00  0.00    -0.253 OA
ATOM     32  C   UNL     1      -1.605  -1.075  -4.968  1.00  0.00     0.139 C 
ENDBRANCH  29  30
ENDBRANCH   8  29
BRANCH   8  33
ATOM     33  C   UNL     1      -2.541  -3.362  -1.298  1.00  0.00     0.173 C 
ATOM     34  O   UNL     1      -2.145  -3.972  -0.301  1.00  0.00    -0.295 OA
ATOM     35  C   UNL     1      -3.279  -4.119  -2.376  1.00  0.00     0.092 C 
ENDBRANCH   8  33
TORSDOF 5
