REMARK SMILES CCCCCCCC(=O)CC[C@@H]1[C@@H](C/C=C\CCCC(=O)OC(C)C)[C@@H](O)C[C@H]1O
REMARK SMILES IDX 12 1 29 2 28 3 26 4 13 5 11 6 10 7 8 8 9 9 7 10 6 11 5 12
REMARK SMILES IDX 4 13 3 14 2 15 1 16 30 17 14 19 15 20 16 21 17 22 18 23
REMARK SMILES IDX 19 24 20 25 21 26 22 27 23 28 24 29 25 30 27 31
REMARK H PARENT 30 18 27 32
ROOT
ATOM      1  C   UNL     1      -0.636   1.173   1.038  1.00  0.00     0.024 C 
ATOM      2  C   UNL     1      -0.502   2.713   1.116  1.00  0.00     0.120 C 
ATOM      3  C   UNL     1       0.978   3.013   1.359  1.00  0.00     0.064 C 
ATOM      4  C   UNL     1       1.689   1.804   0.766  1.00  0.00     0.120 C 
ATOM      5  C   UNL     1       0.805   0.641   1.239  1.00  0.00     0.027 C 
ENDROOT
BRANCH   1   6
ATOM      6  C   UNL     1      -1.604   0.611   2.094  1.00  0.00     0.014 C 
BRANCH   6   7
ATOM      7  C   UNL     1      -3.061   1.001   1.840  1.00  0.00     0.076 C 
BRANCH   7   8
ATOM      8  C   UNL     1      -3.653   0.269   0.649  1.00  0.00     0.132 C 
ATOM      9  O   UNL     1      -3.540  -0.950   0.527  1.00  0.00    -0.300 OA
BRANCH   8  10
ATOM     10  C   UNL     1      -4.425   1.092  -0.364  1.00  0.00     0.075 C 
BRANCH  10  11
ATOM     11  C   UNL     1      -5.727   1.647   0.200  1.00  0.00     0.008 C 
BRANCH  11  12
ATOM     12  C   UNL     1      -6.765   0.607   0.640  1.00  0.00     0.000 C 
BRANCH  12  13
ATOM     13  C   UNL     1      -7.421  -0.178  -0.501  1.00  0.00     0.000 C 
BRANCH  13  14
ATOM     14  C   UNL     1      -6.750  -1.525  -0.785  1.00  0.00    -0.000 C 
BRANCH  14  15
ATOM     15  C   UNL     1      -7.551  -2.403  -1.751  1.00  0.00    -0.003 C 
ATOM     16  C   UNL     1      -7.680  -1.809  -3.146  1.00  0.00     0.004 C 
ENDBRANCH  14  15
ENDBRANCH  13  14
ENDBRANCH  12  13
ENDBRANCH  11  12
ENDBRANCH  10  11
ENDBRANCH   8  10
ENDBRANCH   7   8
ENDBRANCH   6   7
ENDBRANCH   1   6
BRANCH   2  17
ATOM     17  O   UNL     1      -0.893   3.243  -0.150  1.00  0.00    -0.393 OA
ATOM     18  H   UNL     1      -0.769   4.209  -0.115  1.00  0.00     0.210 HD
ENDBRANCH   2  17
BRANCH   5  19
ATOM     19  C   UNL     1       1.062  -0.691   0.523  1.00  0.00     0.033 C 
BRANCH  19  20
ATOM     20  C   UNL     1       2.370  -1.303   0.946  1.00  0.00    -0.031 C 
ATOM     21  C   UNL     1       3.527  -1.339   0.265  1.00  0.00    -0.031 C 
BRANCH  21  22
ATOM     22  C   UNL     1       3.811  -0.749  -1.089  1.00  0.00     0.027 C 
BRANCH  22  23
ATOM     23  C   UNL     1       4.324  -1.768  -2.115  1.00  0.00     0.016 C 
BRANCH  23  24
ATOM     24  C   UNL     1       5.638  -2.458  -1.754  1.00  0.00     0.123 C 
BRANCH  24  25
ATOM     25  C   UNL     1       6.768  -1.471  -1.602  1.00  0.00     0.306 C 
ATOM     26  O   UNL     1       7.376  -0.972  -2.538  1.00  0.00    -0.252 OA
BRANCH  25  27
ATOM     27  O   UNL     1       6.980  -1.202  -0.283  1.00  0.00    -0.463 OA
BRANCH  27  28
ATOM     28  C   UNL     1       7.996  -0.226   0.012  1.00  0.00     0.170 C 
ATOM     29  C   UNL     1       9.358  -0.909   0.055  1.00  0.00     0.052 C 
ATOM     30  C   UNL     1       7.654   0.382   1.366  1.00  0.00     0.052 C 
ENDBRANCH  27  28
ENDBRANCH  25  27
ENDBRANCH  24  25
ENDBRANCH  23  24
ENDBRANCH  22  23
ENDBRANCH  21  22
ENDBRANCH  19  20
ENDBRANCH   5  19
BRANCH   4  31
ATOM     31  O   UNL     1       1.730   1.926  -0.653  1.00  0.00    -0.393 OA
ATOM     32  H   UNL     1       0.835   2.159  -0.969  1.00  0.00     0.210 HD
ENDBRANCH   4  31
TORSDOF 19
