REMARK SMILES O=c1[nH]cc(N(CCCl)CCCl)c(=O)[nH]1
REMARK SMILES IDX 6 1 7 2 8 3 9 4 10 5 11 6 12 7 5 8 4 9 13 10 3 11 15 12
REMARK SMILES IDX 14 13 2 14 1 15
REMARK H PARENT 3 16 15 17
ROOT
ATOM      1  N   UNL     1      -0.702   0.165   0.129  1.00  0.00    -0.364 N 
ENDROOT
BRANCH   1   2
ATOM      2  C   UNL     1      -1.343   1.135  -0.799  1.00  0.00     0.133 C 
BRANCH   2   3
ATOM      3  C   UNL     1      -1.127   2.580  -0.345  1.00  0.00     0.131 C 
ATOM      4  Cl  UNL     1      -2.074   3.706  -1.352  1.00  0.00    -0.125 Cl
ENDBRANCH   2   3
ENDBRANCH   1   2
BRANCH   1   5
ATOM      5  C   UNL     1      -1.638  -0.390   1.138  1.00  0.00     0.133 C 
BRANCH   5   6
ATOM      6  C   UNL     1      -2.479  -1.557   0.604  1.00  0.00     0.131 C 
ATOM      7  Cl  UNL     1      -1.550  -3.069   0.461  1.00  0.00    -0.125 Cl
ENDBRANCH   5   6
ENDBRANCH   1   5
BRANCH   1   8
ATOM      8  C   UNL     1       0.665  -0.206   0.043  1.00  0.00     0.119 C 
ATOM      9  C   UNL     1       1.285  -1.078   0.862  1.00  0.00     0.119 C 
ATOM     10  C   UNL     1       1.589   0.393  -1.022  1.00  0.00     0.277 C 
ATOM     11  N   UNL     1       2.602  -1.427   0.752  1.00  0.00    -0.312 N 
ATOM     12  N   UNL     1       2.858  -0.110  -1.113  1.00  0.00    -0.272 N 
ATOM     13  O   UNL     1       1.255   1.308  -1.772  1.00  0.00    -0.267 OA
ATOM     14  C   UNL     1       3.431  -0.961  -0.223  1.00  0.00     0.325 C 
ATOM     15  O   UNL     1       4.613  -1.281  -0.281  1.00  0.00    -0.248 OA
ATOM     16  H   UNL     1       3.016  -2.083   1.403  1.00  0.00     0.171 HD
ATOM     17  H   UNL     1       3.463   0.300  -1.806  1.00  0.00     0.175 HD
ENDBRANCH   1   8
TORSDOF 5
