REMARK SMILES COc1ccccc1N1CCN(CCCNc2cc(=O)n(C)c(=O)n2C)CC1
REMARK SMILES IDX 13 1 12 2 9 3 10 4 28 5 11 6 27 7 8 8 3 9 4 10 7 11 5 12
REMARK SMILES IDX 6 13 2 14 1 15 14 16 15 17 16 18 17 20 18 21 25 22 19 23
REMARK SMILES IDX 23 24 20 25 21 26 24 27 26 28 22 29
REMARK H PARENT 16 19
ROOT
ATOM      1  C   UNL     1      -0.005   0.797  -0.447  1.00  0.00     0.086 C 
ENDROOT
BRANCH   1   2
ATOM      2  N   UNL     1      -1.268   0.124  -0.776  1.00  0.00    -0.300 NA
ATOM      3  N   UNL     1      -3.689  -0.084   1.006  1.00  0.00    -0.366 N 
ATOM      4  C   UNL     1      -3.079  -1.260   0.350  1.00  0.00     0.132 C 
ATOM      5  C   UNL     1      -3.232   1.219   0.473  1.00  0.00     0.132 C 
ATOM      6  C   UNL     1      -1.570  -1.001   0.141  1.00  0.00     0.106 C 
ATOM      7  C   UNL     1      -2.403   1.079  -0.828  1.00  0.00     0.106 C 
BRANCH   3   8
ATOM      8  C   UNL     1      -5.085  -0.240   1.158  1.00  0.00     0.079 A 
ATOM      9  C   UNL     1      -6.042  -0.038   0.134  1.00  0.00     0.142 A 
ATOM     10  C   UNL     1      -7.401  -0.258   0.405  1.00  0.00     0.048 A 
ATOM     11  C   UNL     1      -5.532  -0.663   2.424  1.00  0.00     0.030 A 
ATOM     12  C   UNL     1      -7.818  -0.674   1.672  1.00  0.00     0.004 A 
ATOM     13  C   UNL     1      -6.885  -0.874   2.682  1.00  0.00     0.002 A 
BRANCH   9  14
ATOM     14  O   UNL     1      -5.560   0.361  -1.090  1.00  0.00    -0.495 OA
ATOM     15  C   UNL     1      -6.499   0.580  -2.133  1.00  0.00     0.278 C 
ENDBRANCH   9  14
ENDBRANCH   3   8
ENDBRANCH   1   2
BRANCH   1  16
ATOM     16  C   UNL     1       1.208  -0.136  -0.548  1.00  0.00     0.037 C 
BRANCH  16  17
ATOM     17  C   UNL     1       2.510   0.642  -0.356  1.00  0.00     0.115 C 
BRANCH  17  18
ATOM     18  N   UNL     1       3.645  -0.275  -0.391  1.00  0.00    -0.371 N 
ATOM     19  H   UNL     1       3.451  -1.156   0.073  1.00  0.00     0.162 HD
BRANCH  18  20
ATOM     20  C   UNL     1       4.993   0.073  -0.336  1.00  0.00     0.115 C 
ATOM     21  C   UNL     1       5.389   1.335  -0.550  1.00  0.00     0.116 C 
ATOM     22  N   UNL     1       5.969  -0.883  -0.067  1.00  0.00    -0.283 N 
ATOM     23  C   UNL     1       6.799   1.729  -0.493  1.00  0.00     0.257 C 
ATOM     24  C   UNL     1       7.333  -0.587   0.023  1.00  0.00     0.332 C 
ATOM     25  O   UNL     1       7.092   2.911  -0.674  1.00  0.00    -0.269 OA
ATOM     26  N   UNL     1       7.699   0.726  -0.228  1.00  0.00    -0.263 N 
ATOM     27  O   UNL     1       8.173  -1.443   0.313  1.00  0.00    -0.247 OA
ATOM     28  C   UNL     1       5.586  -2.278   0.122  1.00  0.00     0.157 C 
ATOM     29  C   UNL     1       9.103   1.078  -0.144  1.00  0.00     0.158 C 
ENDBRANCH  18  20
ENDBRANCH  17  18
ENDBRANCH  16  17
ENDBRANCH   1  16
TORSDOF 7
