REMARK SMILES C[C@H](CCC(=O)O)[C@H]1CC[C@H]2[C@@H]3[C@@H](O)C[C@@H]4C[C@H](O)CC[C@]4(C)[C@H]3CC[C@]12C
REMARK SMILES IDX 3 1 2 2 1 3 8 4 9 5 27 6 10 7 26 8 11 9 25 10 12 11 24 12
REMARK SMILES IDX 13 13 22 14 15 15 21 16 16 17 20 18 17 19 18 20 28 21 23 22
REMARK SMILES IDX 14 23 19 25 4 27 5 28 6 29 7 30
REMARK H PARENT 14 24 19 26 7 31
ROOT
ATOM      1  C   UNL     1       5.310  -1.101   0.029  1.00  0.00     0.015 C 
ENDROOT
BRANCH   1   2
ATOM      2  C   UNL     1       4.145  -0.080   0.155  1.00  0.00    -0.010 C 
ATOM      3  C   UNL     1       4.336   1.081  -0.822  1.00  0.00     0.008 C 
BRANCH   2   4
ATOM      4  C   UNL     1       2.740  -0.737   0.043  1.00  0.00    -0.002 C 
ATOM      5  C   UNL     1       2.560  -1.904   1.055  1.00  0.00     0.005 C 
ATOM      6  C   UNL     1       1.468   0.135   0.291  1.00  0.00    -0.026 C 
ATOM      7  C   UNL     1       1.067  -1.978   1.399  1.00  0.00     0.005 C 
ATOM      8  C   UNL     1       1.009   0.997  -0.899  1.00  0.00     0.007 C 
ATOM      9  C   UNL     1       0.415  -0.988   0.443  1.00  0.00     0.001 C 
ATOM     10  C   UNL     1      -0.398   1.573  -0.675  1.00  0.00     0.005 C 
ATOM     11  C   UNL     1      -1.003  -0.489   0.772  1.00  0.00     0.025 C 
ATOM     12  C   UNL     1      -1.469   0.510  -0.322  1.00  0.00     0.001 C 
ATOM     13  C   UNL     1      -1.985  -1.684   0.864  1.00  0.00     0.118 C 
ATOM     14  C   UNL     1      -2.900   1.121   0.002  1.00  0.00    -0.026 C 
ATOM     15  C   UNL     1      -3.433  -1.330   0.508  1.00  0.00     0.036 C 
ATOM     16  C   UNL     1      -3.600   1.413  -1.357  1.00  0.00     0.010 C 
ATOM     17  C   UNL     1      -3.745   0.127   0.873  1.00  0.00     0.000 C 
ATOM     18  C   UNL     1      -5.082   1.762  -1.243  1.00  0.00     0.032 C 
ATOM     19  C   UNL     1      -5.261   0.419   0.872  1.00  0.00     0.036 C 
ATOM     20  C   UNL     1      -5.862   0.684  -0.503  1.00  0.00     0.114 C 
ATOM     21  C   UNL     1       1.630   1.007   1.558  1.00  0.00     0.012 C 
ATOM     22  C   UNL     1      -2.789   2.446   0.798  1.00  0.00     0.012 C 
BRANCH  13  23
ATOM     23  O   UNL     1      -1.951  -2.217   2.191  1.00  0.00    -0.393 OA
ATOM     24  H   UNL     1      -2.207  -1.509   2.806  1.00  0.00     0.210 HD
ENDBRANCH  13  23
BRANCH  20  25
ATOM     25  O   UNL     1      -5.871  -0.507  -1.282  1.00  0.00    -0.393 OA
ATOM     26  H   UNL     1      -6.389  -1.174  -0.799  1.00  0.00     0.210 HD
ENDBRANCH  20  25
ENDBRANCH   2   4
ENDBRANCH   1   2
BRANCH   1  27
ATOM     27  C   UNL     1       5.401  -1.894  -1.276  1.00  0.00     0.123 C 
BRANCH  27  28
ATOM     28  C   UNL     1       5.998  -1.120  -2.417  1.00  0.00     0.303 C 
ATOM     29  O   UNL     1       5.437  -0.816  -3.456  1.00  0.00    -0.252 OA
BRANCH  28  30
ATOM     30  O   UNL     1       7.285  -0.782  -2.207  1.00  0.00    -0.481 OA
ATOM     31  H   UNL     1       7.541  -0.298  -3.020  1.00  0.00     0.296 HD
ENDBRANCH  28  30
ENDBRANCH  27  28
ENDBRANCH   1  27
TORSDOF 7
