REMARK SMILES O=C(O)CNC(=O)c1ncc(-c2cccc(Cl)c2)cc1O
REMARK SMILES IDX 6 1 7 2 5 3 8 5 11 6 19 7 10 8 20 9 9 10 12 11 14 12 13 13
REMARK SMILES IDX 15 14 16 15 18 16 17 17 21 18 4 20 2 21 1 22 3 23
REMARK H PARENT 5 4 21 19 3 24
ROOT
ATOM      1  C   UNL     1       2.619  -0.640   0.858  1.00  0.00     0.274 C 
ATOM      2  O   UNL     1       2.990  -1.369   1.775  1.00  0.00    -0.267 OA
ATOM      3  N   UNL     1       3.528   0.067   0.100  1.00  0.00    -0.340 N 
ATOM      4  H   UNL     1       3.192   0.667  -0.653  1.00  0.00     0.164 HD
ENDROOT
BRANCH   1   5
ATOM      5  C   UNL     1       1.153  -0.482   0.515  1.00  0.00     0.169 A 
ATOM      6  C   UNL     1      -1.585  -0.332   0.047  1.00  0.00     0.004 A 
ATOM      7  C   UNL     1      -0.696   0.408  -0.745  1.00  0.00     0.059 A 
ATOM      8  C   UNL     1      -1.017  -1.119   1.048  1.00  0.00     0.121 A 
ATOM      9  C   UNL     1       0.681   0.338  -0.515  1.00  0.00     0.147 A 
ATOM     10  N   UNL     1       0.310  -1.210   1.297  1.00  0.00    -0.247 NA
BRANCH   6  11
ATOM     11  C   UNL     1      -3.037  -0.278  -0.165  1.00  0.00    -0.015 A 
ATOM     12  C   UNL     1      -4.975  -0.500  -1.635  1.00  0.00     0.002 A 
ATOM     13  C   UNL     1      -3.594  -0.550  -1.428  1.00  0.00     0.009 A 
ATOM     14  C   UNL     1      -5.826  -0.175  -0.580  1.00  0.00     0.020 A 
ATOM     15  C   UNL     1      -5.290   0.098   0.675  1.00  0.00     0.041 A 
ATOM     16  C   UNL     1      -3.911   0.047   0.886  1.00  0.00     0.029 A 
ATOM     17  Cl  UNL     1      -6.338   0.503   1.979  1.00  0.00    -0.084 Cl
ENDBRANCH   6  11
BRANCH   9  18
ATOM     18  O   UNL     1       1.522   1.078  -1.304  1.00  0.00    -0.505 OA
ATOM     19  H   UNL     1       1.002   1.598  -1.942  1.00  0.00     0.293 HD
ENDBRANCH   9  18
ENDBRANCH   1   5
BRANCH   3  20
ATOM     20  C   UNL     1       4.954  -0.011   0.349  1.00  0.00     0.238 C 
BRANCH  20  21
ATOM     21  C   UNL     1       5.710   0.865  -0.631  1.00  0.00     0.322 C 
ATOM     22  O   UNL     1       5.226   1.556  -1.516  1.00  0.00    -0.250 OA
BRANCH  21  23
ATOM     23  O   UNL     1       7.045   0.827  -0.445  1.00  0.00    -0.480 OA
ATOM     24  H   UNL     1       7.403   1.427  -1.132  1.00  0.00     0.296 HD
ENDBRANCH  21  23
ENDBRANCH  20  21
ENDBRANCH   3  20
TORSDOF 6
