REMARK SMILES CN[C@H](CC(C)C)C(=O)N[C@H]1C(=O)N[C@@H](CC(N)=O)C(=O)N[C@H]2C(=O)N[C@H]3C(=O)N[C@H](C(=O)N[C@H](C(=O)O)c4cc(O)cc(O)c4-c4cc3ccc4O)[C@H](O)c3ccc(c(Cl)c3)Oc3cc2cc(c3O[C@@H]2O[C@H](CO)[C@@H](O)[C@H](O)[C@H]2O[C@H]2C[C@](C)(N)[C@H](O)[C@H](C)O2)Oc2ccc(cc2Cl)[C@H]1O
REMARK SMILES IDX 68 1 69 2 64 3 65 4 66 5 67 6 92 7 93 8 96 9 95 10 97 11
REMARK SMILES IDX 94 12 98 13 99 14 100 15 11 16 10 18 8 19 9 20 3 22 2 23
REMARK SMILES IDX 1 24 4 26 5 27 6 28 7 29 101 30 70 32 71 33 72 34 80 35
REMARK SMILES IDX 73 36 78 37 76 38 81 39 82 40 83 41 91 42 84 43 89 44 87 45
REMARK SMILES IDX 85 46 90 47 86 48 88 51 74 53 75 54 79 56 77 58 63 60 59 61
REMARK SMILES IDX 58 62 60 63 57 64 62 65 56 66 61 67 54 68 31 69 30 71 28 72
REMARK SMILES IDX 29 73 55 76 23 78 22 79 20 80 21 81 15 83 16 84 17 85 18 86
REMARK SMILES IDX 19 87 14 90 12 91 13 92 24 95 25 96 26 97 27 99 49 101
REMARK SMILES IDX 48 102 50 103 47 104 51 105 52 106 46 107 39 108 44 109
REMARK SMILES IDX 40 110 43 111 41 112 35 113 34 114 32 115 33 116 36 119
REMARK SMILES IDX 37 120 38 121 45 123 42 125 53 127
REMARK H PARENT 10 21 2 25 101 31 86 49 86 50 88 52 75 55 79 57 77 59 30 74
REMARK H PARENT 55 77 22 82 18 88 18 89 14 93 26 98 34 117 38 122 45 124
REMARK H PARENT 42 126 53 128
REMARK Flexibility Score:  368.700
ROOT
ATOM      1  C   UNL     1       1.921   2.014  -0.440  1.00  0.00     0.173 A 
ATOM      2  C   UNL     1       0.900   2.977  -0.483  1.00  0.00     0.208 A 
ATOM      3  C   UNL     1      -0.416   2.587  -0.751  1.00  0.00     0.173 A 
ATOM      4  C   UNL     1      -0.680   1.236  -1.028  1.00  0.00     0.057 A 
ATOM      5  C   UNL     1       0.316   0.246  -0.949  1.00  0.00    -0.009 A 
ATOM      6  C   UNL     1       1.613   0.654  -0.637  1.00  0.00     0.057 A 
ENDROOT
BRANCH   1   7
ATOM      7  O   UNL     1       3.208   2.453  -0.155  1.00  0.00    -0.452 OA
BRANCH   7   8
ATOM      8  C   UNL     1       4.238   1.634  -0.559  1.00  0.00     0.146 A 
ATOM      9  C   UNL     1       6.156  -0.290  -1.251  1.00  0.00    -0.015 A 
ATOM     10  C   UNL     1       5.878  -0.018   0.095  1.00  0.00     0.010 A 
ATOM     11  C   UNL     1       5.523   0.483  -2.241  1.00  0.00     0.031 A 
ATOM     12  C   UNL     1       4.926   0.942   0.441  1.00  0.00     0.049 A 
ATOM     13  C   UNL     1       4.574   1.450  -1.901  1.00  0.00     0.084 A 
ATOM     14  Cl  UNL     1       3.822   2.326  -3.185  1.00  0.00    -0.080 Cl
BRANCH   9  15
ATOM     15  C   UNL     1       7.078  -1.420  -1.678  1.00  0.00     0.176 C 
BRANCH  15  16
ATOM     16  C   UNL     1       6.485  -2.857  -1.565  1.00  0.00     0.204 CG0
ATOM     17  G   UNL     1       5.074  -2.900  -2.203  1.00  0.00     0.000 G0
BRANCH  16  18
ATOM     18  N   UNL     1       6.532  -3.404  -0.199  1.00  0.00    -0.340 N 
ATOM     19  C   UNL     1       6.616  -4.755   0.037  1.00  0.00     0.237 C 
ATOM     20  O   UNL     1       6.559  -5.578  -0.875  1.00  0.00    -0.273 OA
ATOM     21  H   UNL     1       6.631  -2.758   0.573  1.00  0.00     0.164 HD
BRANCH  19  22
ATOM     22  C   UNL     1       6.726  -5.190   1.516  1.00  0.00     0.143 C 
BRANCH  22  23
ATOM     23  N   UNL     1       5.420  -5.049   2.206  1.00  0.00    -0.309 NA
ATOM     24  C   UNL     1       5.002  -3.711   2.595  1.00  0.00     0.102 C 
ATOM     25  H   UNL     1       4.680  -5.446   1.601  1.00  0.00     0.123 HD
ENDBRANCH  22  23
BRANCH  22  26
ATOM     26  C   UNL     1       7.898  -4.562   2.293  1.00  0.00     0.032 C 
BRANCH  26  27
ATOM     27  C   UNL     1       9.329  -4.910   1.826  1.00  0.00    -0.015 C 
ATOM     28  C   UNL     1       9.568  -6.406   1.646  1.00  0.00     0.007 C 
ATOM     29  C   UNL     1       9.760  -4.148   0.572  1.00  0.00     0.007 C 
ENDBRANCH  26  27
ENDBRANCH  22  26
ENDBRANCH  19  22
ENDBRANCH  16  18
ENDBRANCH  15  16
BRANCH  15  30
ATOM     30  O   UNL     1       8.294  -1.320  -0.924  1.00  0.00    -0.386 OA
ATOM     31  H   UNL     1       8.577  -0.388  -0.966  1.00  0.00     0.211 HD
ENDBRANCH  15  30
ENDBRANCH   9  15
ENDBRANCH   7   8
ENDBRANCH   1   7
BRANCH   2  32
ATOM     32  O   UNL     1       1.158   4.280  -0.143  1.00  0.00    -0.454 OA
BRANCH  32  33
ATOM     33  C   UNL     1       1.524   5.074  -1.291  1.00  0.00     0.340 C 
ATOM     34  O   UNL     1       2.948   4.995  -1.428  1.00  0.00    -0.332 OA
ATOM     35  C   UNL     1       0.994   6.501  -1.029  1.00  0.00     0.221 C 
ATOM     36  C   UNL     1       3.639   6.158  -1.887  1.00  0.00     0.179 C 
ATOM     37  C   UNL     1       1.497   7.502  -2.090  1.00  0.00     0.181 C 
ATOM     38  C   UNL     1       2.778   7.042  -2.788  1.00  0.00     0.177 C 
BRANCH  35  39
ATOM     39  O   UNL     1      -0.448   6.505  -1.077  1.00  0.00    -0.340 OA
BRANCH  39  40
ATOM     40  C   UNL     1      -1.026   7.343  -0.075  1.00  0.00     0.253 C 
ATOM     41  C   UNL     1      -2.461   7.624  -0.505  1.00  0.00     0.087 C 
ATOM     42  O   UNL     1      -1.023   6.652   1.171  1.00  0.00    -0.347 OA
ATOM     43  C   UNL     1      -3.216   8.476   0.526  1.00  0.00     0.046 C 
ATOM     44  C   UNL     1      -1.594   7.396   2.249  1.00  0.00     0.149 C 
ATOM     45  C   UNL     1      -3.041   7.850   1.939  1.00  0.00     0.163 C 
ATOM     46  C   UNL     1      -4.708   8.530   0.143  1.00  0.00     0.031 C 
ATOM     47  C   UNL     1      -0.633   8.484   2.726  1.00  0.00     0.041 C 
BRANCH  43  48
ATOM     48  N   UNL     1      -2.721   9.878   0.521  1.00  0.00    -0.323 NA
ATOM     49  H   UNL     1      -2.621  10.192  -0.449  1.00  0.00     0.119 HD
ATOM     50  H   UNL     1      -3.445  10.485   0.909  1.00  0.00     0.119 HD
ENDBRANCH  43  48
BRANCH  45  51
ATOM     51  O   UNL     1      -3.534   8.750   2.938  1.00  0.00    -0.389 OA
ATOM     52  H   UNL     1      -3.040   9.580   2.792  1.00  0.00     0.211 HD
ENDBRANCH  45  51
ENDBRANCH  39  40
ENDBRANCH  35  39
BRANCH  36  53
ATOM     53  C   UNL     1       4.244   6.882  -0.677  1.00  0.00     0.191 C 
BRANCH  53  54
ATOM     54  O   UNL     1       5.127   5.988   0.006  1.00  0.00    -0.394 OA
ATOM     55  H   UNL     1       4.631   5.149   0.092  1.00  0.00     0.210 HD
ENDBRANCH  53  54
ENDBRANCH  36  53
BRANCH  37  56
ATOM     56  O   UNL     1       1.723   8.772  -1.453  1.00  0.00    -0.387 OA
ATOM     57  H   UNL     1       1.777   9.442  -2.158  1.00  0.00     0.211 HD
ENDBRANCH  37  56
BRANCH  38  58
ATOM     58  O   UNL     1       2.393   6.319  -3.969  1.00  0.00    -0.387 OA
ATOM     59  H   UNL     1       3.102   5.689  -4.198  1.00  0.00     0.211 HD
ENDBRANCH  38  58
ENDBRANCH  32  33
ENDBRANCH   2  32
BRANCH   3  60
ATOM     60  O   UNL     1      -1.406   3.562  -0.720  1.00  0.00    -0.452 OA
BRANCH  60  61
ATOM     61  C   UNL     1      -2.691   3.102  -0.539  1.00  0.00     0.146 A 
ATOM     62  C   UNL     1      -3.088   2.692   0.735  1.00  0.00     0.049 A 
ATOM     63  C   UNL     1      -3.546   2.938  -1.627  1.00  0.00     0.084 A 
ATOM     64  C   UNL     1      -4.276   1.973   0.893  1.00  0.00     0.010 A 
ATOM     65  C   UNL     1      -4.719   2.202  -1.466  1.00  0.00     0.031 A 
ATOM     66  C   UNL     1      -5.061   1.635  -0.221  1.00  0.00    -0.015 A 
ATOM     67  Cl  UNL     1      -3.123   3.514  -3.198  1.00  0.00    -0.080 Cl
BRANCH  66  68
ATOM     68  C   UNL     1      -6.242   0.670  -0.125  1.00  0.00     0.176 C 
BRANCH  68  69
ATOM     69  C   UNL     1      -6.168  -0.439   0.983  1.00  0.00     0.205 CG2
ATOM     70  G   UNL     1      -7.287  -1.496   0.778  1.00  0.00     0.000 G2
BRANCH  69  71
ATOM     71  N   UNL     1      -4.877  -1.093   1.291  1.00  0.00    -0.340 N 
ATOM     72  C   UNL     1      -3.972  -1.566   0.364  1.00  0.00     0.247 CG1
ATOM     73  O   UNL     1      -4.011  -1.299  -0.836  1.00  0.00    -0.272 OA
ATOM     74  H   UNL     1      -4.689  -1.292   2.264  1.00  0.00     0.164 HD
ATOM     75  G   UNL     1      -2.950  -2.606   0.930  1.00  0.00     0.000 G1
ENDBRANCH  69  71
ENDBRANCH  68  69
BRANCH  68  76
ATOM     76  O   UNL     1      -6.482   0.099  -1.421  1.00  0.00    -0.386 OA
ATOM     77  H   UNL     1      -7.344  -0.363  -1.379  1.00  0.00     0.211 HD
ENDBRANCH  68  76
ENDBRANCH  66  68
ENDBRANCH  60  61
ENDBRANCH   3  60
BRANCH   5  78
ATOM     78  C   UNL     1      -0.123  -1.206  -1.067  1.00  0.00     0.202 C 
BRANCH  78  79
ATOM     79  N   UNL     1       0.802  -2.155  -1.679  1.00  0.00    -0.339 N 
ATOM     80  C   UNL     1       1.893  -2.683  -1.021  1.00  0.00     0.244 C 
ATOM     81  O   UNL     1       2.142  -2.460   0.160  1.00  0.00    -0.273 OA
ATOM     82  H   UNL     1       0.894  -2.066  -2.683  1.00  0.00     0.164 HD
BRANCH  80  83
ATOM     83  C   UNL     1       2.723  -3.660  -1.883  1.00  0.00     0.180 C 
BRANCH  83  84
ATOM     84  C   UNL     1       2.120  -5.064  -1.780  1.00  0.00     0.134 C 
BRANCH  84  85
ATOM     85  C   UNL     1       2.279  -5.700  -0.412  1.00  0.00     0.220 C 
ATOM     86  N   UNL     1       1.357  -6.667  -0.127  1.00  0.00    -0.370 N 
ATOM     87  O   UNL     1       3.176  -5.441   0.381  1.00  0.00    -0.275 OA
ATOM     88  H   UNL     1       0.618  -6.942  -0.759  1.00  0.00     0.159 HD
ATOM     89  H   UNL     1       1.422  -7.132   0.769  1.00  0.00     0.159 HD
ENDBRANCH  84  85
ENDBRANCH  83  84
BRANCH  83  90
ATOM     90  N   UNL     1       4.126  -3.614  -1.512  1.00  0.00    -0.342 N 
ATOM     91  C   UNL     1       5.074  -2.900  -2.203  1.00  0.00     0.246 CG0
ATOM     92  O   UNL     1       4.826  -2.376  -3.289  1.00  0.00    -0.273 OA
ATOM     93  H   UNL     1       4.349  -3.917  -0.566  1.00  0.00     0.164 HD
ATOM     94  G   UNL     1       6.485  -2.857  -1.565  1.00  0.00     0.000 G0
ENDBRANCH  83  90
ENDBRANCH  80  83
ENDBRANCH  78  79
BRANCH  78  95
ATOM     95  C   UNL     1      -0.835  -1.703   0.226  1.00  0.00     0.248 C 
ATOM     96  O   UNL     1      -0.628  -1.233   1.344  1.00  0.00    -0.272 OA
ATOM     97  N   UNL     1      -1.828  -2.656   0.014  1.00  0.00    -0.338 N 
ATOM     98  H   UNL     1      -2.092  -2.820  -0.951  1.00  0.00     0.164 HD
BRANCH  97  99
ATOM     99  C   UNL     1      -2.950  -2.606   0.930  1.00  0.00     0.202 CG1
ATOM    100  G   UNL     1      -3.972  -1.566   0.364  1.00  0.00     0.000 G1
BRANCH  99 101
ATOM    101  C   UNL     1      -3.622  -3.956   1.106  1.00  0.00    -0.015 A 
ATOM    102  C   UNL     1      -4.720  -4.329   0.315  1.00  0.00     0.019 A 
ATOM    103  C   UNL     1      -3.233  -4.801   2.150  1.00  0.00     0.010 A 
ATOM    104  C   UNL     1      -5.548  -5.412   0.660  1.00  0.00     0.028 A 
ATOM    105  C   UNL     1      -3.981  -5.944   2.443  1.00  0.00     0.047 A 
ATOM    106  C   UNL     1      -5.138  -6.232   1.718  1.00  0.00     0.123 A 
BRANCH 104 107
ATOM    107  C   UNL     1      -6.826  -5.557  -0.062  1.00  0.00     0.033 A 
ATOM    108  C   UNL     1      -7.960  -4.747   0.243  1.00  0.00     0.001 A 
ATOM    109  C   UNL     1      -6.925  -6.476  -1.130  1.00  0.00     0.127 A 
ATOM    110  C   UNL     1      -9.113  -4.866  -0.561  1.00  0.00     0.053 A 
ATOM    111  C   UNL     1      -8.083  -6.598  -1.899  1.00  0.00     0.093 A 
ATOM    112  C   UNL     1      -9.163  -5.778  -1.611  1.00  0.00     0.119 A 
BRANCH 108 113
ATOM    113  C   UNL     1      -8.043  -3.799   1.437  1.00  0.00     0.224 C 
BRANCH 113 114
ATOM    114  N   UNL     1      -7.072  -2.705   1.392  1.00  0.00    -0.337 N 
ATOM    115  C   UNL     1      -7.287  -1.496   0.778  1.00  0.00     0.246 CG2
ATOM    116  O   UNL     1      -8.342  -1.229   0.200  1.00  0.00    -0.273 OA
ATOM    117  H   UNL     1      -6.236  -2.842   1.942  1.00  0.00     0.164 HD
ATOM    118  G   UNL     1      -6.168  -0.439   0.983  1.00  0.00     0.000 G2
ENDBRANCH 113 114
BRANCH 113 119
ATOM    119  C   UNL     1      -7.940  -4.570   2.769  1.00  0.00     0.330 C 
ATOM    120  O   UNL     1      -8.596  -5.549   3.098  1.00  0.00    -0.250 OA
BRANCH 119 121
ATOM    121  O   UNL     1      -7.013  -4.064   3.622  1.00  0.00    -0.479 OA
ATOM    122  H   UNL     1      -7.039  -4.697   4.376  1.00  0.00     0.296 HD
ENDBRANCH 119 121
ENDBRANCH 113 119
ENDBRANCH 108 113
BRANCH 109 123
ATOM    123  O   UNL     1      -5.847  -7.279  -1.407  1.00  0.00    -0.507 OA
ATOM    124  H   UNL     1      -6.056  -7.853  -2.164  1.00  0.00     0.293 HD
ENDBRANCH 109 123
BRANCH 112 125
ATOM    125  O   UNL     1     -10.319  -5.842  -2.332  1.00  0.00    -0.508 OA
ATOM    126  H   UNL     1     -10.211  -6.476  -3.060  1.00  0.00     0.293 HD
ENDBRANCH 112 125
ENDBRANCH 104 107
BRANCH 106 127
ATOM    127  O   UNL     1      -5.856  -7.320   2.129  1.00  0.00    -0.507 OA
ATOM    128  H   UNL     1      -6.536  -7.509   1.456  1.00  0.00     0.293 HD
ENDBRANCH 106 127
ENDBRANCH  99 101
ENDBRANCH  97  99
ENDBRANCH  78  95
ENDBRANCH   5  78
TORSDOF 24
