REMARK SMILES c1cnc2cc3c(cc2n1)[C@@H]1CNC[C@H]3C1
REMARK SMILES IDX 16 1 11 2 12 3 13 4 14 5 15 6 6 7 7 8 8 9 9 10 10 11 1 12
REMARK SMILES IDX 2 13 3 14 4 15 5 16
REMARK H PARENT 13 17
ROOT
ATOM      1  C   UNL     1      -2.110  -0.460  -1.389  1.00  0.00     0.019 C 
ATOM      2  C   UNL     1      -1.552   0.927  -1.022  1.00  0.00     0.034 C 
ATOM      3  C   UNL     1      -2.345   1.446   0.201  1.00  0.00     0.089 C 
ATOM      4  N   UNL     1      -2.320   0.549   1.370  1.00  0.00    -0.316 NA
ATOM      5  C   UNL     1      -2.395  -0.887   1.051  1.00  0.00     0.089 C 
ATOM      6  C   UNL     1      -1.600  -1.306  -0.209  1.00  0.00     0.034 C 
ATOM      7  C   UNL     1      -0.178  -0.801  -0.164  1.00  0.00    -0.038 A 
ATOM      8  C   UNL     1      -0.150   0.514  -0.643  1.00  0.00    -0.038 A 
ATOM      9  C   UNL     1       1.030   1.232  -0.676  1.00  0.00     0.035 A 
ATOM     10  C   UNL     1       2.202   0.629  -0.235  1.00  0.00     0.089 A 
ATOM     11  N   UNL     1       3.351   1.332  -0.278  1.00  0.00    -0.253 NA
ATOM     12  C   UNL     1       4.458   0.698   0.166  1.00  0.00     0.132 A 
ATOM     13  C   UNL     1       4.430  -0.598   0.638  1.00  0.00     0.132 A 
ATOM     14  N   UNL     1       3.294  -1.326   0.690  1.00  0.00    -0.253 NA
ATOM     15  C   UNL     1       2.173  -0.716   0.255  1.00  0.00     0.089 A 
ATOM     16  C   UNL     1       0.972  -1.417   0.288  1.00  0.00     0.035 A 
ATOM     17  H   UNL     1      -3.032   0.812   2.048  1.00  0.00     0.122 HD
ENDROOT
TORSDOF 0
