REMARK SMILES N=C(N)NCCC[C@H](NC(=O)[C@@H]1CCCN1C(=O)[C@@H]1CSSC[C@H](N)C(=O)N[C@@H](Cc2ccc(O)cc2)C(=O)N[C@@H](Cc2ccccc2)C(=O)N[C@@H](CCC(N)=O)C(=O)N[C@@H](CC(N)=O)C(=O)N1)C(=O)NCC(N)=O
REMARK SMILES IDX 68 1 66 2 67 3 19 5 20 6 21 7 22 8 23 9 24 10 25 12 17 15
REMARK SMILES IDX 18 16 16 17 15 18 12 19 14 20 13 21 10 22 11 23 9 24 8 26
REMARK SMILES IDX 7 27 6 28 5 29 4 30 2 31 3 32 1 33 69 38 70 39 71 40 72 42
REMARK SMILES IDX 73 43 74 44 75 45 61 48 62 49 63 50 64 51 65 52 60 55 58 56
REMARK SMILES IDX 59 57 52 59 53 60 54 61 55 62 56 63 57 64 51 67 49 68 50 69
REMARK SMILES IDX 41 71 42 72 43 73 44 74 48 75 45 76 47 77 46 78 40 79 38 80
REMARK SMILES IDX 39 81 29 83 30 84 31 85 32 86 37 87 33 88 36 89 34 90 35 91
REMARK SMILES IDX 28 93 26 94 27 95
REMARK H PARENT 68 4 25 13 25 14 9 25 4 34 3 35 3 36 1 37 71 41 74 46 74 47
REMARK H PARENT 64 53 64 54 60 58 56 65 56 66 51 70 40 82 35 92 28 96
REMARK Flexibility Score:  516.900
ROOT
ATOM      1  N   UNL     1       1.901   0.019  -1.195  1.00  0.00    -0.342 N 
ATOM      2  C   UNL     1       1.256  -0.991  -0.535  1.00  0.00     0.243 C 
ATOM      3  O   UNL     1       0.686  -0.806   0.543  1.00  0.00    -0.273 OA
ATOM      4  H   UNL     1       2.596  -0.216  -1.895  1.00  0.00     0.164 HD
ENDROOT
BRANCH   1   5
ATOM      5  C   UNL     1       1.895   1.431  -0.749  1.00  0.00     0.182 C 
BRANCH   5   6
ATOM      6  C   UNL     1       0.542   1.911  -0.215  1.00  0.00     0.116 C 
BRANCH   6   7
ATOM      7  S   UNL     1       0.297   3.721  -0.312  1.00  0.00    -0.091 SA
BRANCH   7   8
ATOM      8  S   UNL     1       0.066   4.281   1.655  1.00  0.00    -0.092 SA
BRANCH   8   9
ATOM      9  C   UNL     1      -1.475   3.445   2.224  1.00  0.00     0.110 C 
BRANCH   9  10
ATOM     10  C   UNL     1      -2.649   3.423   1.239  1.00  0.00     0.152 CG0
ATOM     11  G   UNL     1      -3.831   2.648   1.848  1.00  0.00     0.000 G0
BRANCH  10  12
ATOM     12  N   UNL     1      -3.122   4.765   0.814  1.00  0.00    -0.319 NA
ATOM     13  H   UNL     1      -2.306   5.283   0.480  1.00  0.00     0.119 HD
ATOM     14  H   UNL     1      -3.441   5.280   1.637  1.00  0.00     0.119 HD
ENDBRANCH  10  12
ENDBRANCH   9  10
ENDBRANCH   8   9
ENDBRANCH   7   8
ENDBRANCH   6   7
ENDBRANCH   5   6
BRANCH   5  15
ATOM     15  C   UNL     1       3.127   1.734   0.138  1.00  0.00     0.246 C 
ATOM     16  O   UNL     1       3.910   2.637  -0.183  1.00  0.00    -0.272 OA
BRANCH  15  17
ATOM     17  N   UNL     1       3.378   0.937   1.254  1.00  0.00    -0.329 N 
ATOM     18  C   UNL     1       2.481   1.096   2.384  1.00  0.00     0.120 C 
ATOM     19  C   UNL     1       4.754   0.912   1.774  1.00  0.00     0.174 C 
ATOM     20  C   UNL     1       3.182   0.503   3.592  1.00  0.00     0.024 C 
ATOM     21  C   UNL     1       4.628   0.300   3.173  1.00  0.00     0.037 C 
BRANCH  19  22
ATOM     22  C   UNL     1       5.743   0.091   0.905  1.00  0.00     0.243 C 
ATOM     23  O   UNL     1       6.540  -0.713   1.392  1.00  0.00    -0.273 OA
ATOM     24  N   UNL     1       5.732   0.390  -0.435  1.00  0.00    -0.343 N 
ATOM     25  H   UNL     1       5.310   1.280  -0.707  1.00  0.00     0.164 HD
BRANCH  24  26
ATOM     26  C   UNL     1       6.710  -0.157  -1.376  1.00  0.00     0.171 C 
BRANCH  26  27
ATOM     27  C   UNL     1       6.144  -1.340  -2.175  1.00  0.00     0.037 C 
BRANCH  27  28
ATOM     28  C   UNL     1       5.868  -2.625  -1.380  1.00  0.00     0.024 C 
BRANCH  28  29
ATOM     29  C   UNL     1       7.126  -3.412  -1.007  1.00  0.00     0.116 C 
BRANCH  29  30
ATOM     30  N   UNL     1       7.888  -2.703   0.001  1.00  0.00    -0.357 N 
ATOM     31  C   UNL     1       9.139  -3.064   0.350  1.00  0.00     0.185 C 
ATOM     32  N   UNL     1       9.551  -2.418   1.462  1.00  0.00    -0.370 N 
ATOM     33  N   UNL     1       9.877  -3.886  -0.299  1.00  0.00    -0.270 NA
ATOM     34  H   UNL     1       7.326  -2.305   0.756  1.00  0.00     0.163 HD
ATOM     35  H   UNL     1       9.087  -1.527   1.603  1.00  0.00     0.159 HD
ATOM     36  H   UNL     1      10.552  -2.333   1.561  1.00  0.00     0.159 HD
ATOM     37  H   UNL     1      10.763  -4.000   0.195  1.00  0.00     0.191 HD
ENDBRANCH  29  30
ENDBRANCH  28  29
ENDBRANCH  27  28
ENDBRANCH  26  27
BRANCH  26  38
ATOM     38  C   UNL     1       7.062   0.975  -2.358  1.00  0.00     0.243 C 
ATOM     39  O   UNL     1       6.209   1.729  -2.823  1.00  0.00    -0.273 OA
ATOM     40  N   UNL     1       8.398   1.048  -2.694  1.00  0.00    -0.345 N 
ATOM     41  H   UNL     1       9.055   0.595  -2.063  1.00  0.00     0.164 HD
BRANCH  40  42
ATOM     42  C   UNL     1       8.906   2.240  -3.353  1.00  0.00     0.215 C 
BRANCH  42  43
ATOM     43  C   UNL     1       9.377   3.237  -2.292  1.00  0.00     0.236 C 
ATOM     44  N   UNL     1       9.533   4.523  -2.718  1.00  0.00    -0.368 N 
ATOM     45  O   UNL     1       9.661   2.922  -1.138  1.00  0.00    -0.273 OA
ATOM     46  H   UNL     1       9.126   4.859  -3.582  1.00  0.00     0.159 HD
ATOM     47  H   UNL     1       9.784   5.207  -2.019  1.00  0.00     0.159 HD
ENDBRANCH  42  43
ENDBRANCH  40  42
ENDBRANCH  26  38
ENDBRANCH  24  26
ENDBRANCH  19  22
ENDBRANCH  15  17
ENDBRANCH   5  15
ENDBRANCH   1   5
BRANCH   2  48
ATOM     48  C   UNL     1       1.300  -2.412  -1.151  1.00  0.00     0.180 C 
BRANCH  48  49
ATOM     49  C   UNL     1       1.126  -2.442  -2.669  1.00  0.00     0.134 C 
BRANCH  49  50
ATOM     50  C   UNL     1       1.436  -3.772  -3.320  1.00  0.00     0.220 C 
ATOM     51  N   UNL     1       1.302  -4.894  -2.564  1.00  0.00    -0.370 N 
ATOM     52  O   UNL     1       1.768  -3.866  -4.502  1.00  0.00    -0.275 OA
ATOM     53  H   UNL     1       1.371  -5.765  -3.077  1.00  0.00     0.159 HD
ATOM     54  H   UNL     1       0.640  -4.892  -1.794  1.00  0.00     0.159 HD
ENDBRANCH  49  50
ENDBRANCH  48  49
BRANCH  48  55
ATOM     55  N   UNL     1       0.324  -3.186  -0.340  1.00  0.00    -0.342 N 
ATOM     56  C   UNL     1      -1.043  -3.113  -0.575  1.00  0.00     0.243 C 
ATOM     57  O   UNL     1      -1.530  -3.015  -1.697  1.00  0.00    -0.273 OA
ATOM     58  H   UNL     1       0.551  -3.113   0.649  1.00  0.00     0.164 HD
BRANCH  56  59
ATOM     59  C   UNL     1      -1.922  -3.247   0.697  1.00  0.00     0.171 C 
BRANCH  59  60
ATOM     60  C   UNL     1      -1.901  -4.694   1.185  1.00  0.00     0.045 C 
BRANCH  60  61
ATOM     61  C   UNL     1      -2.741  -4.908   2.446  1.00  0.00     0.102 C 
BRANCH  61  62
ATOM     62  C   UNL     1      -2.711  -6.355   2.890  1.00  0.00     0.217 C 
ATOM     63  N   UNL     1      -3.446  -6.616   4.009  1.00  0.00    -0.370 N 
ATOM     64  O   UNL     1      -2.095  -7.243   2.316  1.00  0.00    -0.275 OA
ATOM     65  H   UNL     1      -3.525  -7.587   4.286  1.00  0.00     0.159 HD
ATOM     66  H   UNL     1      -4.122  -5.961   4.378  1.00  0.00     0.159 HD
ENDBRANCH  61  62
ENDBRANCH  60  61
ENDBRANCH  59  60
BRANCH  59  67
ATOM     67  N   UNL     1      -3.281  -2.820   0.373  1.00  0.00    -0.342 N 
ATOM     68  C   UNL     1      -3.594  -1.474   0.301  1.00  0.00     0.243 C 
ATOM     69  O   UNL     1      -2.785  -0.587   0.563  1.00  0.00    -0.273 OA
ATOM     70  H   UNL     1      -3.806  -3.437  -0.233  1.00  0.00     0.164 HD
BRANCH  68  71
ATOM     71  C   UNL     1      -5.022  -1.177  -0.205  1.00  0.00     0.175 C 
BRANCH  71  72
ATOM     72  C   UNL     1      -5.069  -1.394  -1.728  1.00  0.00     0.070 C 
BRANCH  72  73
ATOM     73  C   UNL     1      -6.423  -1.120  -2.344  1.00  0.00    -0.045 A 
ATOM     74  C   UNL     1      -6.564  -0.136  -3.332  1.00  0.00     0.004 A 
ATOM     75  C   UNL     1      -7.553  -1.852  -1.953  1.00  0.00     0.004 A 
ATOM     76  C   UNL     1      -7.811   0.118  -3.909  1.00  0.00     0.000 A 
ATOM     77  C   UNL     1      -8.797  -1.599  -2.531  1.00  0.00     0.000 A 
ATOM     78  C   UNL     1      -8.927  -0.613  -3.508  1.00  0.00     0.000 A 
ENDBRANCH  72  73
ENDBRANCH  71  72
BRANCH  71  79
ATOM     79  N   UNL     1      -5.342   0.204   0.134  1.00  0.00    -0.342 N 
ATOM     80  C   UNL     1      -6.096   0.539   1.244  1.00  0.00     0.243 C 
ATOM     81  O   UNL     1      -6.737  -0.282   1.890  1.00  0.00    -0.273 OA
ATOM     82  H   UNL     1      -4.630   0.893  -0.092  1.00  0.00     0.164 HD
BRANCH  80  83
ATOM     83  C   UNL     1      -6.209   2.066   1.464  1.00  0.00     0.175 C 
BRANCH  83  84
ATOM     84  C   UNL     1      -7.407   2.561   0.635  1.00  0.00     0.070 C 
BRANCH  84  85
ATOM     85  C   UNL     1      -7.613   4.057   0.710  1.00  0.00    -0.045 A 
ATOM     86  C   UNL     1      -8.168   4.643   1.856  1.00  0.00     0.007 A 
ATOM     87  C   UNL     1      -7.234   4.879  -0.362  1.00  0.00     0.007 A 
ATOM     88  C   UNL     1      -8.330   6.029   1.927  1.00  0.00     0.046 A 
ATOM     89  C   UNL     1      -7.392   6.265  -0.286  1.00  0.00     0.046 A 
ATOM     90  C   UNL     1      -7.940   6.828   0.861  1.00  0.00     0.115 A 
BRANCH  90  91
ATOM     91  O   UNL     1      -8.116   8.174   0.974  1.00  0.00    -0.508 OA
ATOM     92  H   UNL     1      -7.865   8.590   0.134  1.00  0.00     0.293 HD
ENDBRANCH  90  91
ENDBRANCH  84  85
ENDBRANCH  83  84
BRANCH  83  93
ATOM     93  N   UNL     1      -4.951   2.692   1.038  1.00  0.00    -0.343 N 
ATOM     94  C   UNL     1      -3.831   2.648   1.848  1.00  0.00     0.238 CG0
ATOM     95  O   UNL     1      -3.779   2.018   2.897  1.00  0.00    -0.273 OA
ATOM     96  H   UNL     1      -4.987   3.537   0.467  1.00  0.00     0.164 HD
ATOM     97  G   UNL     1      -2.649   3.423   1.239  1.00  0.00     0.000 G0
ENDBRANCH  83  93
ENDBRANCH  80  83
ENDBRANCH  71  79
ENDBRANCH  68  71
ENDBRANCH  59  67
ENDBRANCH  56  59
ENDBRANCH  48  55
ENDBRANCH   2  48
TORSDOF 22
