REMARK SMILES COC[C@H]1C[C@@H](c2nc(-c3ccc4c(c3)COc3cc5c(ccc6nc([C@@H]7CC[C@H](C)N7C(=O)[C@@H](NC(=O)OC)C(C)C)[nH]c65)cc3-4)c[nH]2)N(C(=O)[C@H](NC(=O)OC)c2ccccc2)C1
REMARK SMILES IDX 10 1 15 2 14 3 13 4 12 5 11 6 47 7 18 8 17 9 16 10 19 11
REMARK SMILES IDX 20 12 45 13 24 14 23 15 22 16 21 17 46 18 25 19 26 20 44 21
REMARK SMILES IDX 9 23 7 24 8 25 49 26 48 27 6 29 4 30 5 31 65 32 50 33 3 34
REMARK SMILES IDX 2 35 1 36 51 37 52 38 53 39 54 40 55 41 56 42 57 44 58 45
REMARK SMILES IDX 59 46 60 47 64 48 61 49 63 50 62 51 27 52 28 53 32 54 29 55
REMARK SMILES IDX 30 56 31 57 33 58 34 59 35 60 36 61 37 62 38 63 39 65 40 66
REMARK SMILES IDX 41 67 42 68 43 69
REMARK H PARENT 44 22 49 28 54 43 36 64
ROOT
ATOM      1  C   UNL     1      -2.644   1.118   0.572  1.00  0.00     0.002 A 
ATOM      2  C   UNL     1      -2.006   0.733  -0.613  1.00  0.00     0.018 A 
ATOM      3  C   UNL     1      -0.608   0.609  -0.672  1.00  0.00    -0.002 A 
ATOM      4  C   UNL     1       0.189   0.899   0.447  1.00  0.00    -0.008 A 
ATOM      5  C   UNL     1      -0.454   1.308   1.623  1.00  0.00     0.010 A 
ATOM      6  C   UNL     1      -1.849   1.417   1.684  1.00  0.00     0.011 A 
ATOM      7  C   UNL     1       1.641   0.690   0.318  1.00  0.00     0.025 A 
ATOM      8  C   UNL     1       2.121  -0.044  -0.783  1.00  0.00     0.128 A 
ATOM      9  O   UNL     1       1.293  -0.532  -1.767  1.00  0.00    -0.488 OA
ATOM     10  C   UNL     1       0.085   0.223  -1.952  1.00  0.00     0.266 C 
ATOM     11  C   UNL     1       3.468  -0.383  -0.907  1.00  0.00     0.058 A 
ATOM     12  C   UNL     1       4.380   0.041   0.073  1.00  0.00     0.011 A 
ATOM     13  C   UNL     1       5.751  -0.297   0.020  1.00  0.00     0.074 A 
ATOM     14  C   UNL     1       6.658   0.095   0.996  1.00  0.00     0.089 A 
ATOM     15  C   UNL     1       6.224   0.881   2.070  1.00  0.00     0.031 A 
ATOM     16  C   UNL     1       4.871   1.239   2.144  1.00  0.00     0.011 A 
ATOM     17  C   UNL     1       3.947   0.820   1.171  1.00  0.00    -0.015 A 
ATOM     18  C   UNL     1       2.580   1.138   1.269  1.00  0.00     0.021 A 
ATOM     19  N   UNL     1       7.908  -0.396   0.728  1.00  0.00    -0.231 NA
ATOM     20  C   UNL     1       7.800  -1.078  -0.398  1.00  0.00     0.130 A 
ATOM     21  N   UNL     1       6.511  -1.014  -0.871  1.00  0.00    -0.340 N 
ATOM     22  H   UNL     1       6.165  -1.436  -1.720  1.00  0.00     0.168 HD
ENDROOT
BRANCH   1  23
ATOM     23  C   UNL     1      -4.097   1.171   0.622  1.00  0.00     0.088 A 
ATOM     24  C   UNL     1      -6.145   1.099  -0.061  1.00  0.00     0.129 A 
ATOM     25  N   UNL     1      -4.898   1.087  -0.497  1.00  0.00    -0.231 NA
ATOM     26  N   UNL     1      -6.165   1.215   1.307  1.00  0.00    -0.346 N 
ATOM     27  C   UNL     1      -4.877   1.273   1.755  1.00  0.00     0.113 A 
ATOM     28  H   UNL     1      -7.001   1.222   1.872  1.00  0.00     0.167 HD
BRANCH  24  29
ATOM     29  C   UNL     1      -7.383   1.038  -0.903  1.00  0.00     0.152 C 
ATOM     30  C   UNL     1      -9.146   2.462  -1.696  1.00  0.00     0.037 C 
ATOM     31  C   UNL     1      -7.624   2.390  -1.591  1.00  0.00     0.041 C 
ATOM     32  C   UNL     1      -9.588   1.856  -0.369  1.00  0.00     0.126 C 
ATOM     33  N   UNL     1      -8.612   0.801  -0.122  1.00  0.00    -0.330 N 
BRANCH  30  34
ATOM     34  C   UNL     1      -9.685   3.870  -1.919  1.00  0.00     0.165 C 
BRANCH  34  35
ATOM     35  O   UNL     1      -9.139   4.457  -3.097  1.00  0.00    -0.384 OA
ATOM     36  C   UNL     1      -9.799   4.051  -4.290  1.00  0.00     0.194 C 
ENDBRANCH  34  35
ENDBRANCH  30  34
BRANCH  33  37
ATOM     37  C   UNL     1      -8.857  -0.449   0.436  1.00  0.00     0.250 C 
ATOM     38  O   UNL     1      -7.982  -1.320   0.410  1.00  0.00    -0.272 OA
BRANCH  37  39
ATOM     39  C   UNL     1     -10.207  -0.686   1.178  1.00  0.00     0.205 C 
BRANCH  39  40
ATOM     40  N   UNL     1     -10.088  -1.781   2.135  1.00  0.00    -0.306 N 
ATOM     41  C   UNL     1      -9.994  -3.088   1.758  1.00  0.00     0.407 C 
ATOM     42  O   UNL     1     -10.252  -3.556   0.663  1.00  0.00    -0.225 OA
ATOM     43  H   UNL     1      -9.597  -1.607   2.998  1.00  0.00     0.168 HD
BRANCH  41  44
ATOM     44  O   UNL     1      -9.539  -3.801   2.820  1.00  0.00    -0.453 OA
ATOM     45  C   UNL     1      -9.330  -5.185   2.534  1.00  0.00     0.284 C 
ENDBRANCH  41  44
ENDBRANCH  39  40
BRANCH  39  46
ATOM     46  C   UNL     1     -11.451  -0.787   0.312  1.00  0.00    -0.016 A 
ATOM     47  C   UNL     1     -12.689  -0.374   0.837  1.00  0.00     0.006 A 
ATOM     48  C   UNL     1     -11.417  -1.295  -0.997  1.00  0.00     0.006 A 
ATOM     49  C   UNL     1     -13.851  -0.436   0.067  1.00  0.00     0.000 A 
ATOM     50  C   UNL     1     -12.582  -1.361  -1.764  1.00  0.00     0.000 A 
ATOM     51  C   UNL     1     -13.795  -0.925  -1.236  1.00  0.00     0.000 A 
ENDBRANCH  39  46
ENDBRANCH  37  39
ENDBRANCH  33  37
ENDBRANCH  24  29
ENDBRANCH   1  23
BRANCH  20  52
ATOM     52  C   UNL     1       8.915  -1.799  -1.110  1.00  0.00     0.152 C 
ATOM     53  C   UNL     1       8.504  -3.117  -1.765  1.00  0.00     0.035 C 
ATOM     54  N   UNL     1       9.905  -2.235  -0.126  1.00  0.00    -0.328 N 
ATOM     55  C   UNL     1       8.521  -4.108  -0.609  1.00  0.00     0.027 C 
ATOM     56  C   UNL     1       9.689  -3.630   0.267  1.00  0.00     0.083 C 
ATOM     57  C   UNL     1       9.351  -3.809   1.746  1.00  0.00     0.031 C 
BRANCH  54  58
ATOM     58  C   UNL     1      10.938  -1.490   0.404  1.00  0.00     0.246 C 
ATOM     59  O   UNL     1      11.745  -1.988   1.200  1.00  0.00    -0.272 OA
BRANCH  58  60
ATOM     60  C   UNL     1      11.107  -0.009  -0.016  1.00  0.00     0.177 C 
BRANCH  60  61
ATOM     61  N   UNL     1      11.247   0.717   1.242  1.00  0.00    -0.309 N 
ATOM     62  C   UNL     1      10.574   1.867   1.506  1.00  0.00     0.407 C 
ATOM     63  O   UNL     1       9.974   2.546   0.685  1.00  0.00    -0.225 OA
ATOM     64  H   UNL     1      11.609   0.214   2.043  1.00  0.00     0.167 HD
BRANCH  62  65
ATOM     65  O   UNL     1      10.691   2.157   2.825  1.00  0.00    -0.453 OA
ATOM     66  C   UNL     1      10.014   3.350   3.217  1.00  0.00     0.284 C 
ENDBRANCH  62  65
ENDBRANCH  60  61
BRANCH  60  67
ATOM     67  C   UNL     1      12.367   0.158  -0.902  1.00  0.00     0.015 C 
ATOM     68  C   UNL     1      12.239  -0.608  -2.224  1.00  0.00     0.010 C 
ATOM     69  C   UNL     1      12.656   1.632  -1.212  1.00  0.00     0.010 C 
ENDBRANCH  60  67
ENDBRANCH  58  60
ENDBRANCH  54  58
ENDBRANCH  20  52
TORSDOF 15
