REMARK SMILES N#Cc1ccc2[nH]cc(CCCCN3CCN(c4ccc5oc(C(N)=O)cc5c4)CC3)c2c1
REMARK SMILES IDX 13 1 14 2 17 3 16 4 30 5 15 6 31 7 18 8 23 9 27 10 22 11
REMARK SMILES IDX 28 12 21 13 29 14 20 15 19 16 24 17 25 18 26 19 12 22 11 23
REMARK SMILES IDX 10 24 9 25 8 26 32 27 7 28 6 29 33 30 5 31 3 32 4 33 2 34
REMARK SMILES IDX 1 35
REMARK H PARENT 25 20 25 21 7 36
ROOT
ATOM      1  C   UNL     1       1.246   0.154  -1.399  1.00  0.00     0.084 C 
ENDROOT
BRANCH   1   2
ATOM      2  N   UNL     1      -0.165   0.545  -1.411  1.00  0.00    -0.300 NA
ATOM      3  N   UNL     1      -3.042   0.017  -0.965  1.00  0.00    -0.369 N 
ATOM      4  C   UNL     1      -2.098  -0.187   0.140  1.00  0.00     0.132 C 
ATOM      5  C   UNL     1      -2.459   0.095  -2.316  1.00  0.00     0.132 C 
ATOM      6  C   UNL     1      -0.780   0.605  -0.067  1.00  0.00     0.106 C 
ATOM      7  C   UNL     1      -0.960  -0.288  -2.326  1.00  0.00     0.106 C 
BRANCH   3   8
ATOM      8  C   UNL     1      -4.412  -0.162  -0.811  1.00  0.00     0.038 A 
ATOM      9  C   UNL     1      -8.518  -1.319   0.990  1.00  0.00     0.192 A 
ATOM     10  C   UNL     1      -7.222  -1.509   1.442  1.00  0.00     0.065 A 
ATOM     11  O   UNL     1      -8.481  -0.678  -0.220  1.00  0.00    -0.451 OA
ATOM     12  C   UNL     1      -6.353  -0.947   0.469  1.00  0.00     0.023 A 
ATOM     13  C   UNL     1      -7.176  -0.455  -0.528  1.00  0.00     0.135 A 
ATOM     14  C   UNL     1      -4.958  -0.800   0.323  1.00  0.00     0.038 A 
ATOM     15  C   UNL     1      -6.711   0.177  -1.670  1.00  0.00     0.050 A 
ATOM     16  C   UNL     1      -5.318   0.314  -1.780  1.00  0.00     0.030 A 
BRANCH   9  17
ATOM     17  C   UNL     1      -9.817  -1.656   1.535  1.00  0.00     0.284 C 
ATOM     18  N   UNL     1      -9.817  -2.227   2.778  1.00  0.00    -0.363 N 
ATOM     19  O   UNL     1     -10.894  -1.460   0.979  1.00  0.00    -0.266 OA
ATOM     20  H   UNL     1     -10.724  -2.390   3.197  1.00  0.00     0.160 HD
ATOM     21  H   UNL     1      -8.995  -2.297   3.356  1.00  0.00     0.160 HD
ENDBRANCH   9  17
ENDBRANCH   3   8
ENDBRANCH   1   2
BRANCH   1  22
ATOM     22  C   UNL     1       2.130   1.242  -0.773  1.00  0.00     0.016 C 
BRANCH  22  23
ATOM     23  C   UNL     1       3.612   0.868  -0.850  1.00  0.00     0.006 C 
BRANCH  23  24
ATOM     24  C   UNL     1       4.488   1.944  -0.204  1.00  0.00     0.038 C 
BRANCH  24  25
ATOM     25  C   UNL     1       5.944   1.605  -0.266  1.00  0.00    -0.023 A 
ATOM     26  C   UNL     1       6.857   2.092  -1.181  1.00  0.00     0.087 A 
ATOM     27  C   UNL     1       6.661   0.725   0.606  1.00  0.00     0.004 A 
ATOM     28  N   UNL     1       8.081   1.551  -0.900  1.00  0.00    -0.361 N 
ATOM     29  C   UNL     1       7.991   0.711   0.186  1.00  0.00     0.046 A 
ATOM     30  C   UNL     1       6.297  -0.064   1.717  1.00  0.00     0.030 A 
ATOM     31  C   UNL     1       8.981  -0.051   0.817  1.00  0.00     0.028 A 
ATOM     32  C   UNL     1       7.273  -0.838   2.363  1.00  0.00     0.053 A 
ATOM     33  C   UNL     1       8.596  -0.827   1.915  1.00  0.00     0.021 A 
ATOM     34  C   UNL     1       6.904  -1.647   3.487  1.00  0.00     0.099 C 
ATOM     35  N   UNL     1       6.601  -2.304   4.395  1.00  0.00    -0.192 NA
ATOM     36  H   UNL     1       8.932   1.737  -1.412  1.00  0.00     0.166 HD
ENDBRANCH  24  25
ENDBRANCH  23  24
ENDBRANCH  22  23
ENDBRANCH   1  22
TORSDOF 7
