REMARK SMILES CCOc1ccccc1OCC1CNCCO1
REMARK SMILES IDX 4 1 5 2 6 3 7 4 8 5 9 6 3 7 2 8 1 9 10 10 11 11 12 12 13 13
REMARK SMILES IDX 17 14 14 15 16 16 15 17
REMARK H PARENT 14 18
ROOT
ATOM      1  C   UNL     1      -2.412   0.714  -0.981  1.00  0.00     0.161 A 
ATOM      2  C   UNL     1      -3.244   1.835  -1.032  1.00  0.00     0.050 A 
ATOM      3  C   UNL     1      -2.689   3.110  -1.096  1.00  0.00     0.004 A 
ATOM      4  C   UNL     1      -1.305   3.259  -1.123  1.00  0.00     0.004 A 
ATOM      5  C   UNL     1      -0.472   2.134  -1.102  1.00  0.00     0.050 A 
ATOM      6  C   UNL     1      -1.016   0.847  -1.048  1.00  0.00     0.161 A 
ENDROOT
BRANCH   1   7
ATOM      7  O   UNL     1      -3.043  -0.505  -0.935  1.00  0.00    -0.490 OA
BRANCH   7   8
ATOM      8  C   UNL     1      -2.837  -1.148   0.329  1.00  0.00     0.226 C 
ATOM      9  C   UNL     1      -3.940  -2.175   0.514  1.00  0.00     0.049 C 
ENDBRANCH   7   8
ENDBRANCH   1   7
BRANCH   6  10
ATOM     10  O   UNL     1      -0.290  -0.313  -1.052  1.00  0.00    -0.487 OA
BRANCH  10  11
ATOM     11  C   UNL     1       1.100  -0.256  -1.364  1.00  0.00     0.263 C 
BRANCH  11  12
ATOM     12  C   UNL     1       1.969  -0.109  -0.108  1.00  0.00     0.169 C 
ATOM     13  C   UNL     1       1.764  -1.294   0.862  1.00  0.00     0.116 C 
ATOM     14  O   UNL     1       3.341   0.017  -0.535  1.00  0.00    -0.372 OA
ATOM     15  N   UNL     1       2.556  -1.166   2.103  1.00  0.00    -0.312 NA
ATOM     16  C   UNL     1       4.287  -0.458   0.432  1.00  0.00     0.176 C 
ATOM     17  C   UNL     1       3.775  -0.373   1.875  1.00  0.00     0.109 C 
ATOM     18  H   UNL     1       2.803  -2.101   2.429  1.00  0.00     0.122 HD
ENDBRANCH  11  12
ENDBRANCH  10  11
ENDBRANCH   6  10
TORSDOF 5
