REMARK SMILES CC[C@]1(O)C[C@@H]2C[N@@](CCc3c([nH]c4ccccc34)[C@@](C(=O)OC)(c3cc4c(cc3OC)N(C=O)[C@H]3[C@@](O)(C(=O)OC)[C@H](OC(C)=O)[C@]5(CC)C=CCN6CC[C@]43[C@@H]65)C2)C1
REMARK SMILES IDX 20 1 59 2 6 3 3 4 5 5 60 6 8 7 7 8 2 9 1 10 4 11 9 13 12 15
REMARK SMILES IDX 11 16 13 17 19 18 14 19 18 20 15 21 17 22 16 23 10 25 21 27
REMARK SMILES IDX 22 28 23 29 24 30 25 31 30 32 26 33 29 34 27 35 28 36 57 37
REMARK SMILES IDX 33 38 36 39 56 40 58 41 37 42 55 43 48 44 54 45 43 46 51 47
REMARK SMILES IDX 53 48 52 49 31 50 32 51 34 52 35 53 38 54 39 56 40 57 41 58
REMARK SMILES IDX 42 59 49 60 50 61 44 62 45 63 47 64 46 65
REMARK H PARENT 4 12 13 24 38 55
REMARK Flexibility Score:   28.900
ROOT
ATOM      1  C   UNL     1       1.487   0.545   1.519  1.00  0.00     0.137 C 
ENDROOT
BRANCH   1   2
ATOM      2  C   UNL     1       2.698   0.033   2.401  1.00  0.00     0.035 C 
BRANCH   2   3
ATOM      3  C   UNL     1       3.804  -0.920   1.856  1.00  0.00     0.008 C 
ATOM      4  C   UNL     1       6.229  -1.047   0.950  1.00  0.00     0.077 C 
ATOM      5  C   UNL     1       5.103  -0.155   1.531  1.00  0.00     0.041 C 
ATOM      6  C   UNL     1       5.666  -2.167   0.020  1.00  0.00     0.119 C 
ATOM      7  N   UNL     1       4.275  -1.980  -0.418  1.00  0.00    -0.300 NA
ATOM      8  C   UNL     1       3.399  -1.907   0.750  1.00  0.00     0.088 C 
BRANCH   4   9
ATOM      9  C   UNL     1       7.078  -1.646   2.097  1.00  0.00     0.033 C 
ATOM     10  C   UNL     1       8.279  -2.470   1.638  1.00  0.00     0.007 C 
ENDBRANCH   4   9
BRANCH   4  11
ATOM     11  O   UNL     1       7.080  -0.161   0.202  1.00  0.00    -0.389 OA
ATOM     12  H   UNL     1       7.677  -0.697  -0.345  1.00  0.00     0.211 HD
ENDBRANCH   4  11
BRANCH   7  13
ATOM     13  C   UNL     1       4.147  -0.901  -1.416  1.00  0.00     0.089 CG0
ATOM     14  G   UNL     1       2.767  -0.234  -1.605  1.00  0.00     0.000 G0
ENDBRANCH   7  13
ENDBRANCH   2   3
ENDBRANCH   1   2
BRANCH   1  15
ATOM     15  C   UNL     1       2.128   1.395   0.372  1.00  0.00     0.041 A 
ATOM     16  C   UNL     1       2.653   1.092  -0.890  1.00  0.00    -0.017 A 
ATOM     17  N   UNL     1       2.362   2.747   0.570  1.00  0.00    -0.357 N 
ATOM     18  C   UNL     1       3.150   2.323  -1.453  1.00  0.00     0.003 A 
ATOM     19  C   UNL     1       2.948   3.330  -0.519  1.00  0.00     0.046 A 
ATOM     20  C   UNL     1       3.782   2.664  -2.669  1.00  0.00     0.010 A 
ATOM     21  C   UNL     1       3.330   4.661  -0.730  1.00  0.00     0.026 A 
ATOM     22  C   UNL     1       4.173   3.989  -2.901  1.00  0.00     0.001 A 
ATOM     23  C   UNL     1       3.948   4.973  -1.942  1.00  0.00     0.002 A 
ATOM     24  H   UNL     1       2.164   3.246   1.431  1.00  0.00     0.166 HD
BRANCH  16  25
ATOM     25  C   UNL     1       2.767  -0.234  -1.605  1.00  0.00     0.053 CG0
ATOM     26  G   UNL     1       4.147  -0.901  -1.416  1.00  0.00     0.000 G0
ENDBRANCH  16  25
ENDBRANCH   1  15
BRANCH   1  27
ATOM     27  C   UNL     1       0.728   1.564   2.479  1.00  0.00     0.322 C 
ATOM     28  O   UNL     1       1.291   2.473   3.092  1.00  0.00    -0.251 OA
BRANCH  27  29
ATOM     29  O   UNL     1      -0.625   1.385   2.508  1.00  0.00    -0.468 OA
ATOM     30  C   UNL     1      -1.351   2.342   3.279  1.00  0.00     0.282 C 
ENDBRANCH  27  29
ENDBRANCH   1  27
BRANCH   1  31
ATOM     31  C   UNL     1       0.420  -0.486   1.023  1.00  0.00     0.018 A 
ATOM     32  C   UNL     1       0.089  -1.679   1.731  1.00  0.00     0.125 A 
ATOM     33  C   UNL     1      -0.355  -0.156  -0.122  1.00  0.00     0.015 A 
ATOM     34  C   UNL     1      -0.930  -2.531   1.274  1.00  0.00     0.073 A 
ATOM     35  C   UNL     1      -1.371  -0.998  -0.548  1.00  0.00    -0.013 A 
ATOM     36  C   UNL     1      -1.652  -2.168   0.155  1.00  0.00     0.051 A 
ATOM     37  C   UNL     1      -2.226  -0.930  -1.797  1.00  0.00     0.040 C 
ATOM     38  N   UNL     1      -2.767  -2.806  -0.415  1.00  0.00    -0.307 N 
ATOM     39  C   UNL     1      -3.415  -1.837  -1.347  1.00  0.00     0.150 C 
ATOM     40  C   UNL     1      -1.428  -1.622  -2.926  1.00  0.00     0.031 C 
ATOM     41  C   UNL     1      -2.578   0.449  -2.420  1.00  0.00     0.083 C 
ATOM     42  C   UNL     1      -4.616  -1.081  -0.689  1.00  0.00     0.222 C 
ATOM     43  C   UNL     1      -2.094  -1.110  -4.178  1.00  0.00     0.086 C 
ATOM     44  C   UNL     1      -3.972   1.063  -2.023  1.00  0.00     0.045 C 
ATOM     45  N   UNL     1      -2.276   0.306  -3.877  1.00  0.00    -0.295 NA
ATOM     46  C   UNL     1      -4.455   0.459  -0.670  1.00  0.00     0.233 C 
ATOM     47  C   UNL     1      -4.997   0.819  -3.132  1.00  0.00    -0.018 C 
ATOM     48  C   UNL     1      -3.196   0.943  -4.810  1.00  0.00     0.112 C 
ATOM     49  C   UNL     1      -4.628   0.780  -4.420  1.00  0.00    -0.015 C 
BRANCH  32  50
ATOM     50  O   UNL     1       0.788  -1.931   2.881  1.00  0.00    -0.496 OA
ATOM     51  C   UNL     1       0.524  -3.138   3.588  1.00  0.00     0.278 C 
ENDBRANCH  32  50
BRANCH  38  52
ATOM     52  C   UNL     1      -3.270  -4.043  -0.083  1.00  0.00     0.345 C 
ATOM     53  O   UNL     1      -2.817  -4.839   0.726  1.00  0.00    -0.278 OA
ENDBRANCH  38  52
BRANCH  42  54
ATOM     54  O   UNL     1      -5.791  -1.447  -1.472  1.00  0.00    -0.374 OA
ATOM     55  H   UNL     1      -6.356  -2.014  -0.903  1.00  0.00     0.212 HD
ENDBRANCH  42  54
BRANCH  42  56
ATOM     56  C   UNL     1      -4.936  -1.550   0.745  1.00  0.00     0.344 C 
ATOM     57  O   UNL     1      -5.901  -2.273   0.984  1.00  0.00    -0.249 OA
BRANCH  56  58
ATOM     58  O   UNL     1      -4.057  -1.091   1.667  1.00  0.00    -0.467 OA
ATOM     59  C   UNL     1      -4.329  -1.497   3.008  1.00  0.00     0.282 C 
ENDBRANCH  56  58
ENDBRANCH  42  56
BRANCH  44  60
ATOM     60  C   UNL     1      -3.881   2.631  -1.914  1.00  0.00     0.013 C 
ATOM     61  C   UNL     1      -2.963   3.203  -0.835  1.00  0.00     0.005 C 
ENDBRANCH  44  60
BRANCH  46  62
ATOM     62  O   UNL     1      -5.738   1.069  -0.331  1.00  0.00    -0.458 OA
BRANCH  62  63
ATOM     63  C   UNL     1      -5.889   1.657   0.883  1.00  0.00     0.303 C 
ATOM     64  O   UNL     1      -5.037   1.714   1.756  1.00  0.00    -0.253 OA
ATOM     65  C   UNL     1      -7.260   2.247   0.999  1.00  0.00     0.139 C 
ENDBRANCH  62  63
ENDBRANCH  46  62
ENDBRANCH   1  31
TORSDOF 13
