REMARK SMILES CC[C@]12C=CCN3CC[C@@]4(c5cc([C@@]6(C(=O)OC)C[C@@H]7C[C@@H](C(C)(F)F)C[N@](Cc8c6[nH]c6ccccc86)C7)c(OC)cc5N(C)[C@H]4[C@@](O)(C(=O)OC)[C@@H]1OC(C)=O)[C@@H]32
REMARK SMILES IDX 30 1 31 2 32 3 33 4 38 5 37 6 36 7 35 8 34 9 14 11 13 12
REMARK SMILES IDX 3 13 4 14 59 15 54 16 5 17 10 18 7 19 48 20 6 21 9 22 47 23
REMARK SMILES IDX 11 24 8 25 45 26 44 27 12 28 43 29 40 30 46 31 2 32 1 33
REMARK SMILES IDX 55 34 56 35 58 36 57 37 49 38 50 40 51 41 52 42 53 43 41 44
REMARK SMILES IDX 42 45 19 46 15 48 16 49 17 50 18 51 29 52 28 53 27 54 39 55
REMARK SMILES IDX 22 56 20 57 21 58 23 60 24 61 25 62 26 63
REMARK H PARENT 32 10 49 39
REMARK Flexibility Score:   87.900
ROOT
ATOM      1  C   UNL     1       4.186  -1.622   0.644  1.00  0.00    -0.004 A 
ATOM      2  C   UNL     1       3.058  -1.801  -0.164  1.00  0.00     0.043 A 
ATOM      3  N   UNL     1       2.492  -2.996   0.240  1.00  0.00    -0.357 N 
ATOM      4  C   UNL     1       3.196  -3.575   1.263  1.00  0.00     0.046 A 
ATOM      5  C   UNL     1       4.268  -2.737   1.541  1.00  0.00     0.004 A 
ATOM      6  C   UNL     1       5.156  -3.108   2.573  1.00  0.00     0.010 A 
ATOM      7  C   UNL     1       4.943  -4.301   3.272  1.00  0.00     0.001 A 
ATOM      8  C   UNL     1       3.859  -5.118   2.965  1.00  0.00     0.002 A 
ATOM      9  C   UNL     1       2.963  -4.772   1.951  1.00  0.00     0.026 A 
ATOM     10  H   UNL     1       1.672  -3.415  -0.177  1.00  0.00     0.166 HD
ENDROOT
BRANCH   2  11
ATOM     11  C   UNL     1       2.452  -0.976  -1.331  1.00  0.00     0.137 C 
BRANCH  11  12
ATOM     12  C   UNL     1       0.905  -1.203  -1.460  1.00  0.00     0.018 A 
ATOM     13  C   UNL     1      -3.819   1.550   1.213  1.00  0.00     0.045 C 
ATOM     14  C   UNL     1      -4.100   3.059   1.257  1.00  0.00    -0.018 C 
ATOM     15  C   UNL     1      -2.443   1.236   0.460  1.00  0.00     0.083 C 
ATOM     16  C   UNL     1      -5.032   0.779   0.583  1.00  0.00     0.233 C 
ATOM     17  C   UNL     1      -3.105   3.958   1.250  1.00  0.00    -0.015 C 
ATOM     18  C   UNL     1      -2.520   0.556  -0.932  1.00  0.00     0.039 C 
ATOM     19  N   UNL     1      -1.529   2.396   0.215  1.00  0.00    -0.295 NA
ATOM     20  C   UNL     1      -4.708  -0.568  -0.093  1.00  0.00     0.221 C 
ATOM     21  C   UNL     1      -1.681   3.527   1.120  1.00  0.00     0.112 C 
ATOM     22  C   UNL     1      -2.449   1.744  -1.900  1.00  0.00     0.031 C 
ATOM     23  C   UNL     1      -3.745  -0.336  -1.265  1.00  0.00     0.141 C 
ATOM     24  C   UNL     1      -1.391  -0.419  -1.216  1.00  0.00    -0.014 A 
ATOM     25  C   UNL     1      -1.619   2.796  -1.193  1.00  0.00     0.086 C 
ATOM     26  N   UNL     1      -3.293  -1.648  -1.840  1.00  0.00    -0.367 N 
ATOM     27  C   UNL     1      -1.884  -1.594  -1.764  1.00  0.00     0.044 A 
ATOM     28  C   UNL     1      -0.019  -0.231  -1.044  1.00  0.00     0.015 A 
ATOM     29  C   UNL     1      -1.009  -2.595  -2.152  1.00  0.00     0.073 A 
ATOM     30  C   UNL     1       0.372  -2.401  -2.019  1.00  0.00     0.125 A 
ATOM     31  C   UNL     1      -3.792  -1.980  -3.175  1.00  0.00     0.144 C 
BRANCH  13  32
ATOM     32  C   UNL     1      -3.630   1.164   2.735  1.00  0.00     0.013 C 
ATOM     33  C   UNL     1      -4.810   1.424   3.676  1.00  0.00     0.005 C 
ENDBRANCH  13  32
BRANCH  16  34
ATOM     34  O   UNL     1      -5.612   1.615  -0.472  1.00  0.00    -0.458 OA
BRANCH  34  35
ATOM     35  C   UNL     1      -6.905   2.010  -0.319  1.00  0.00     0.303 C 
ATOM     36  O   UNL     1      -7.601   1.820   0.667  1.00  0.00    -0.253 OA
ATOM     37  C   UNL     1      -7.354   2.753  -1.540  1.00  0.00     0.139 C 
ENDBRANCH  34  35
ENDBRANCH  16  34
BRANCH  20  38
ATOM     38  O   UNL     1      -5.954  -1.061  -0.676  1.00  0.00    -0.374 OA
ATOM     39  H   UNL     1      -5.785  -2.004  -0.869  1.00  0.00     0.212 HD
ENDBRANCH  20  38
BRANCH  20  40
ATOM     40  C   UNL     1      -4.183  -1.616   0.915  1.00  0.00     0.344 C 
ATOM     41  O   UNL     1      -3.069  -1.635   1.423  1.00  0.00    -0.249 OA
BRANCH  40  42
ATOM     42  O   UNL     1      -5.154  -2.541   1.191  1.00  0.00    -0.467 OA
ATOM     43  C   UNL     1      -4.763  -3.542   2.133  1.00  0.00     0.282 C 
ENDBRANCH  40  42
ENDBRANCH  20  40
BRANCH  30  44
ATOM     44  O   UNL     1       1.274  -3.389  -2.339  1.00  0.00    -0.496 OA
ATOM     45  C   UNL     1       0.891  -4.288  -3.376  1.00  0.00     0.278 C 
ENDBRANCH  30  44
ENDBRANCH  11  12
BRANCH  11  46
ATOM     46  C   UNL     1       2.889   0.552  -1.322  1.00  0.00     0.035 CG0
ATOM     47  G   UNL     1       2.797   1.496  -0.088  1.00  0.00     0.000 G0
ENDBRANCH  11  46
BRANCH  11  48
ATOM     48  C   UNL     1       3.116  -1.433  -2.693  1.00  0.00     0.322 C 
ATOM     49  O   UNL     1       2.692  -1.111  -3.801  1.00  0.00    -0.251 OA
BRANCH  48  50
ATOM     50  O   UNL     1       4.272  -2.140  -2.516  1.00  0.00    -0.468 OA
ATOM     51  C   UNL     1       4.887  -2.568  -3.729  1.00  0.00     0.282 C 
ENDBRANCH  48  50
ENDBRANCH  11  48
ENDBRANCH   2  11
BRANCH   1  52
ATOM     52  C   UNL     1       5.140  -0.470   0.620  1.00  0.00     0.122 C 
BRANCH  52  53
ATOM     53  N   UNL     1       4.629   0.653   1.418  1.00  0.00    -0.298 NA
ATOM     54  C   UNL     1       5.422   1.875   1.208  1.00  0.00     0.094 C 
ATOM     55  C   UNL     1       3.196   0.934   1.277  1.00  0.00     0.088 C 
ATOM     56  C   UNL     1       5.132   2.586  -0.126  1.00  0.00     0.073 C 
ATOM     57  C   UNL     1       2.797   1.496  -0.088  1.00  0.00     0.005 CG0
ATOM     58  C   UNL     1       3.618   2.791  -0.332  1.00  0.00     0.016 C 
ATOM     59  G   UNL     1       2.889   0.552  -1.322  1.00  0.00     0.000 G0
BRANCH  56  60
ATOM     60  C   UNL     1       5.938   3.883  -0.261  1.00  0.00     0.249 C 
ATOM     61  C   UNL     1       5.644   4.994   0.728  1.00  0.00     0.087 C 
ATOM     62  F   UNL     1       5.750   4.378  -1.517  1.00  0.00    -0.207 F 
ATOM     63  F   UNL     1       7.264   3.579  -0.179  1.00  0.00    -0.207 F 
ENDBRANCH  56  60
ENDBRANCH  52  53
ENDBRANCH   1  52
TORSDOF 11
