REMARK SMILES C=C/C=C/C[C@@H](C)[C@@H](O)[C@H]1C(=O)N[C@@H](CC)C(=O)N(C)CC(=O)N(C)[C@@H](CC(C)C)C(=O)N[C@@H](C(C)C)C(=O)N(C)[C@@H](CC(C)C)C(=O)N[C@@H](C)C(=O)N[C@H](C)C(=O)N(C)[C@@H](CC(C)C)C(=O)N(C)[C@@H](CC(C)C)C(=O)N(C)[C@@H](C(C)C)C(=O)N1C
REMARK SMILES IDX 24 1 25 2 22 3 23 4 21 5 19 6 20 7 17 8 18 9 14 10 15 11
REMARK SMILES IDX 16 12 13 13 11 14 12 15 10 17 8 18 9 19 6 21 7 22 5 23 4 24
REMARK SMILES IDX 3 25 2 26 1 27 85 28 86 29 83 30 84 31 79 32 80 33 81 34
REMARK SMILES IDX 82 35 77 36 78 37 75 38 76 39 70 40 71 41 72 42 73 43 74 44
REMARK SMILES IDX 68 45 69 46 66 47 67 48 26 50 31 51 33 52 32 53 34 55 38 56
REMARK SMILES IDX 39 57 40 58 41 59 42 60 47 61 49 62 48 63 50 65 51 66 52 67
REMARK SMILES IDX 54 68 53 69 55 71 56 72 57 73 58 74 59 75 60 76 61 77 62 79
REMARK SMILES IDX 63 80 64 81 65 82 43 83 44 84 45 85 46 86 35 87 36 88 37 89
REMARK SMILES IDX 27 90 28 91 29 92 30 93
REMARK H PARENT 13 16 9 20 33 54 49 64 54 70
REMARK Flexibility Score:  763.900
ROOT
ATOM      1  N   UNL     1       4.593  -4.206  -0.706  1.00  0.00    -0.332 N 
ATOM      2  C   UNL     1       5.215  -3.583  -1.870  1.00  0.00     0.147 C 
ENDROOT
BRANCH   1   3
ATOM      3  C   UNL     1       3.224  -4.463  -0.800  1.00  0.00     0.242 C 
ATOM      4  O   UNL     1       2.630  -4.341  -1.880  1.00  0.00    -0.273 OA
BRANCH   3   5
ATOM      5  C   UNL     1       2.453  -4.888   0.469  1.00  0.00     0.219 C 
BRANCH   5   6
ATOM      6  N   UNL     1       1.162  -5.496   0.121  1.00  0.00    -0.335 N 
ATOM      7  C   UNL     1       1.209  -6.884  -0.319  1.00  0.00     0.147 C 
BRANCH   6   8
ATOM      8  C   UNL     1       0.089  -4.636  -0.073  1.00  0.00     0.245 C 
ATOM      9  O   UNL     1       0.144  -3.442   0.246  1.00  0.00    -0.272 OA
BRANCH   8  10
ATOM     10  C   UNL     1      -1.198  -5.182  -0.739  1.00  0.00     0.171 C 
BRANCH  10  11
ATOM     11  C   UNL     1      -1.015  -5.318  -2.254  1.00  0.00     0.032 C 
ATOM     12  C   UNL     1      -2.204  -5.998  -2.923  1.00  0.00     0.006 C 
ENDBRANCH  10  11
BRANCH  10  13
ATOM     13  N   UNL     1      -2.243  -4.200  -0.452  1.00  0.00    -0.342 N 
ATOM     14  C   UNL     1      -3.392  -4.498   0.252  1.00  0.00     0.246 C 
ATOM     15  O   UNL     1      -3.694  -5.641   0.577  1.00  0.00    -0.273 OA
ATOM     16  H   UNL     1      -1.903  -3.241  -0.379  1.00  0.00     0.164 HD
BRANCH  14  17
ATOM     17  C   UNL     1      -4.187  -3.241   0.680  1.00  0.00     0.203 C 
BRANCH  17  18
ATOM     18  C   UNL     1      -5.441  -3.574   1.550  1.00  0.00     0.149 C 
BRANCH  18  19
ATOM     19  O   UNL     1      -4.967  -4.215   2.745  1.00  0.00    -0.390 OA
ATOM     20  H   UNL     1      -4.670  -5.111   2.491  1.00  0.00     0.211 HD
ENDBRANCH  18  19
BRANCH  18  21
ATOM     21  C   UNL     1      -6.598  -4.381   0.890  1.00  0.00     0.021 C 
ATOM     22  C   UNL     1      -7.477  -3.464   0.024  1.00  0.00     0.011 C 
BRANCH  21  23
ATOM     23  C   UNL     1      -7.537  -5.074   1.922  1.00  0.00     0.033 C 
BRANCH  23  24
ATOM     24  C   UNL     1      -6.977  -6.329   2.544  1.00  0.00    -0.027 C 
ATOM     25  C   UNL     1      -6.798  -6.470   3.867  1.00  0.00    -0.005 C 
BRANCH  25  26
ATOM     26  C   UNL     1      -6.246  -7.658   4.471  1.00  0.00    -0.008 C 
ATOM     27  C   UNL     1      -6.024  -7.762   5.786  1.00  0.00     0.008 C 
ENDBRANCH  25  26
ENDBRANCH  23  24
ENDBRANCH  21  23
ENDBRANCH  18  21
ENDBRANCH  17  18
BRANCH  17  28
ATOM     28  N   UNL     1      -4.370  -2.231  -0.398  1.00  0.00    -0.329 N 
ATOM     29  C   UNL     1      -4.526  -2.688  -1.776  1.00  0.00     0.147 C 
BRANCH  28  30
ATOM     30  C   UNL     1      -4.414  -0.897  -0.003  1.00  0.00     0.246 C 
ATOM     31  O   UNL     1      -4.559  -0.627   1.196  1.00  0.00    -0.272 OA
BRANCH  30  32
ATOM     32  C   UNL     1      -4.255   0.245  -1.064  1.00  0.00     0.176 C 
BRANCH  32  33
ATOM     33  C   UNL     1      -2.934   0.195  -1.889  1.00  0.00     0.015 C 
ATOM     34  C   UNL     1      -2.866   1.313  -2.935  1.00  0.00     0.010 C 
ATOM     35  C   UNL     1      -1.646   0.181  -1.062  1.00  0.00     0.010 C 
ENDBRANCH  32  33
BRANCH  32  36
ATOM     36  N   UNL     1      -4.518   1.585  -0.461  1.00  0.00    -0.332 N 
ATOM     37  C   UNL     1      -3.750   1.970   0.718  1.00  0.00     0.147 C 
BRANCH  36  38
ATOM     38  C   UNL     1      -5.525   2.379  -1.023  1.00  0.00     0.245 C 
ATOM     39  O   UNL     1      -6.081   2.025  -2.067  1.00  0.00    -0.272 OA
BRANCH  38  40
ATOM     40  C   UNL     1      -6.057   3.629  -0.228  1.00  0.00     0.174 C 
BRANCH  40  41
ATOM     41  C   UNL     1      -7.143   4.423  -0.997  1.00  0.00     0.038 C 
BRANCH  41  42
ATOM     42  C   UNL     1      -8.599   4.160  -0.547  1.00  0.00    -0.015 C 
ATOM     43  C   UNL     1      -9.002   2.689  -0.633  1.00  0.00     0.007 C 
ATOM     44  C   UNL     1      -8.868   4.711   0.856  1.00  0.00     0.007 C 
ENDBRANCH  41  42
ENDBRANCH  40  41
BRANCH  40  45
ATOM     45  N   UNL     1      -5.024   4.540   0.323  1.00  0.00    -0.332 N 
ATOM     46  C   UNL     1      -5.220   4.953   1.712  1.00  0.00     0.147 C 
BRANCH  45  47
ATOM     47  C   UNL     1      -4.142   5.150  -0.579  1.00  0.00     0.245 CG0
ATOM     48  O   UNL     1      -4.221   4.914  -1.787  1.00  0.00    -0.272 OA
ATOM     49  G   UNL     1      -3.030   6.083  -0.009  1.00  0.00     0.000 G0
ENDBRANCH  45  47
ENDBRANCH  40  45
ENDBRANCH  38  40
ENDBRANCH  36  38
ENDBRANCH  32  36
ENDBRANCH  30  32
ENDBRANCH  28  30
ENDBRANCH  17  28
ENDBRANCH  14  17
ENDBRANCH  10  13
ENDBRANCH   8  10
ENDBRANCH   6   8
ENDBRANCH   5   6
ENDBRANCH   3   5
ENDBRANCH   1   3
BRANCH   1  50
ATOM     50  C   UNL     1       5.459  -4.629   0.417  1.00  0.00     0.174 C 
BRANCH  50  51
ATOM     51  C   UNL     1       5.943  -3.422   1.270  1.00  0.00     0.243 C 
ATOM     52  N   UNL     1       7.165  -2.891   0.918  1.00  0.00    -0.342 N 
ATOM     53  O   UNL     1       5.258  -2.970   2.188  1.00  0.00    -0.273 OA
ATOM     54  H   UNL     1       7.403  -2.983  -0.060  1.00  0.00     0.164 HD
BRANCH  52  55
ATOM     55  C   UNL     1       7.693  -1.663   1.537  1.00  0.00     0.174 C 
BRANCH  55  56
ATOM     56  C   UNL     1       7.239  -0.444   0.682  1.00  0.00     0.245 C 
ATOM     57  O   UNL     1       6.739  -0.658  -0.432  1.00  0.00    -0.272 OA
BRANCH  56  58
ATOM     58  N   UNL     1       7.488   0.850   1.144  1.00  0.00    -0.332 N 
ATOM     59  C   UNL     1       7.897   1.149   2.515  1.00  0.00     0.147 C 
BRANCH  58  60
ATOM     60  C   UNL     1       6.965   2.027   0.381  1.00  0.00     0.174 C 
BRANCH  60  61
ATOM     61  C   UNL     1       5.491   2.287   0.814  1.00  0.00     0.243 C 
ATOM     62  N   UNL     1       4.920   3.457   0.368  1.00  0.00    -0.343 N 
ATOM     63  O   UNL     1       4.891   1.554   1.603  1.00  0.00    -0.273 OA
ATOM     64  H   UNL     1       5.394   4.073  -0.275  1.00  0.00     0.164 HD
BRANCH  62  65
ATOM     65  C   UNL     1       3.633   3.917   0.876  1.00  0.00     0.168 C 
ATOM     66  C   UNL     1       3.823   4.641   2.208  1.00  0.00     0.041 C 
BRANCH  65  67
ATOM     67  C   UNL     1       2.966   4.844  -0.167  1.00  0.00     0.242 C 
ATOM     68  N   UNL     1       1.700   5.249   0.172  1.00  0.00    -0.343 N 
ATOM     69  O   UNL     1       3.531   5.187  -1.202  1.00  0.00    -0.273 OA
ATOM     70  H   UNL     1       1.294   4.956   1.058  1.00  0.00     0.164 HD
BRANCH  68  71
ATOM     71  C   UNL     1       0.809   6.020  -0.693  1.00  0.00     0.168 C 
ATOM     72  C   UNL     1       1.259   7.472  -0.824  1.00  0.00     0.041 C 
BRANCH  71  73
ATOM     73  C   UNL     1      -0.571   5.974   0.004  1.00  0.00     0.245 C 
ATOM     74  O   UNL     1      -0.607   5.805   1.231  1.00  0.00    -0.272 OA
BRANCH  73  75
ATOM     75  N   UNL     1      -1.733   6.162  -0.741  1.00  0.00    -0.332 N 
ATOM     76  C   UNL     1      -1.745   6.153  -2.199  1.00  0.00     0.147 C 
BRANCH  75  77
ATOM     77  C   UNL     1      -3.030   6.083  -0.009  1.00  0.00     0.174 CG0
ATOM     78  G   UNL     1      -4.142   5.150  -0.579  1.00  0.00     0.000 G0
BRANCH  77  79
ATOM     79  C   UNL     1      -3.518   7.481   0.445  1.00  0.00     0.038 C 
BRANCH  79  80
ATOM     80  C   UNL     1      -3.760   8.555  -0.634  1.00  0.00    -0.015 C 
ATOM     81  C   UNL     1      -3.960   9.913   0.048  1.00  0.00     0.007 C 
ATOM     82  C   UNL     1      -4.981   8.252  -1.500  1.00  0.00     0.007 C 
ENDBRANCH  79  80
ENDBRANCH  77  79
ENDBRANCH  75  77
ENDBRANCH  73  75
ENDBRANCH  71  73
ENDBRANCH  68  71
ENDBRANCH  65  67
ENDBRANCH  62  65
ENDBRANCH  60  61
BRANCH  60  83
ATOM     83  C   UNL     1       7.182   1.937  -1.148  1.00  0.00     0.038 C 
BRANCH  83  84
ATOM     84  C   UNL     1       7.446   3.255  -1.912  1.00  0.00    -0.015 C 
ATOM     85  C   UNL     1       8.700   3.981  -1.426  1.00  0.00     0.007 C 
ATOM     86  C   UNL     1       7.579   2.953  -3.409  1.00  0.00     0.007 C 
ENDBRANCH  83  84
ENDBRANCH  60  83
ENDBRANCH  58  60
ENDBRANCH  56  58
ENDBRANCH  55  56
BRANCH  55  87
ATOM     87  C   UNL     1       9.238  -1.755   1.659  1.00  0.00     0.015 C 
ATOM     88  C   UNL     1       9.636  -2.789   2.719  1.00  0.00     0.010 C 
ATOM     89  C   UNL     1       9.939  -2.074   0.333  1.00  0.00     0.010 C 
ENDBRANCH  55  87
ENDBRANCH  52  55
ENDBRANCH  50  51
BRANCH  50  90
ATOM     90  C   UNL     1       6.617  -5.576   0.013  1.00  0.00     0.038 C 
BRANCH  90  91
ATOM     91  C   UNL     1       6.258  -7.051  -0.287  1.00  0.00    -0.015 C 
ATOM     92  C   UNL     1       5.456  -7.246  -1.572  1.00  0.00     0.007 C 
ATOM     93  C   UNL     1       5.557  -7.745   0.880  1.00  0.00     0.007 C 
ENDBRANCH  90  91
ENDBRANCH  50  90
ENDBRANCH   1  50
TORSDOF 17
