REMARK SMILES CNCc1cc(-c2ccccc2F)n(S(=O)(=O)c2cccnc2)c1
REMARK SMILES IDX 4 1 24 2 14 3 6 4 5 5 3 6 2 7 1 8 15 10 16 11 17 12 18 13
REMARK SMILES IDX 19 14 23 15 20 16 22 17 21 18 7 19 8 20 12 21 9 22 11 23
REMARK SMILES IDX 10 24 13 25
REMARK H PARENT 2 9
ROOT
ATOM      1  C   UNL     1      -1.182  -1.937   1.148  1.00  0.00    -0.015 A 
ATOM      2  C   UNL     1      -0.017  -1.393   1.659  1.00  0.00     0.109 A 
ATOM      3  N   UNL     1       0.248  -0.231   0.982  1.00  0.00    -0.241 N 
ATOM      4  C   UNL     1      -0.710  -0.002   0.013  1.00  0.00     0.067 A 
ATOM      5  C   UNL     1      -1.603  -1.062   0.104  1.00  0.00     0.034 A 
ENDROOT
BRANCH   1   6
ATOM      6  C   UNL     1      -1.861  -3.195   1.587  1.00  0.00     0.118 C 
BRANCH   6   7
ATOM      7  N   UNL     1      -2.282  -3.084   2.984  1.00  0.00    -0.316 NA
ATOM      8  C   UNL     1      -3.439  -2.212   3.147  1.00  0.00     0.101 C 
ATOM      9  H   UNL     1      -2.529  -4.014   3.318  1.00  0.00     0.122 HD
ENDBRANCH   6   7
ENDBRANCH   1   6
BRANCH   3  10
ATOM     10  S   UNL     1       1.627   0.730   1.289  1.00  0.00     0.269 S 
ATOM     11  O   UNL     1       2.406   0.024   2.289  1.00  0.00    -0.201 OA
ATOM     12  O   UNL     1       1.120   2.069   1.523  1.00  0.00    -0.201 OA
BRANCH  10  13
ATOM     13  C   UNL     1       2.543   0.698  -0.204  1.00  0.00     0.106 A 
ATOM     14  C   UNL     1       2.972  -0.506  -0.760  1.00  0.00     0.025 A 
ATOM     15  C   UNL     1       2.854   1.886  -0.840  1.00  0.00     0.133 A 
ATOM     16  C   UNL     1       3.687  -0.473  -1.953  1.00  0.00     0.021 A 
ATOM     17  N   UNL     1       3.548   1.940  -2.002  1.00  0.00    -0.263 NA
ATOM     18  C   UNL     1       3.945   0.761  -2.532  1.00  0.00     0.111 A 
ENDBRANCH  10  13
ENDBRANCH   3  10
BRANCH   4  19
ATOM     19  C   UNL     1      -0.730   1.104  -0.938  1.00  0.00     0.035 A 
ATOM     20  C   UNL     1      -1.153   2.377  -0.542  1.00  0.00     0.013 A 
ATOM     21  C   UNL     1      -0.349   0.906  -2.271  1.00  0.00     0.132 A 
ATOM     22  C   UNL     1      -1.166   3.433  -1.459  1.00  0.00     0.001 A 
ATOM     23  C   UNL     1      -0.358   1.954  -3.188  1.00  0.00     0.040 A 
ATOM     24  C   UNL     1      -0.766   3.222  -2.779  1.00  0.00     0.003 A 
ATOM     25  F   UNL     1       0.058  -0.305  -2.683  1.00  0.00    -0.206 F 
ENDBRANCH   4  19
TORSDOF 5
