REMARK SMILES C[N+]1(Cc2ccc(-c3ccccc3)cc2)[C@@H]2CC[C@H]1C[C@@H](OC(=O)C(CO)c1ccccc1)C2
REMARK SMILES IDX 23 1 24 2 22 3 21 4 2 5 19 6 16 7 18 8 20 9 17 10 34 11 1 12
REMARK SMILES IDX 3 13 4 14 5 15 15 16 6 17 14 18 7 19 8 20 9 21 13 22 10 23
REMARK SMILES IDX 12 24 11 25 25 26 26 27 27 28 28 30 29 31 33 32 30 33 32 34
REMARK SMILES IDX 31 35
REMARK H PARENT 27 29
ROOT
ATOM      1  C   UNL     1      -4.499  -1.337  -1.337  1.00  0.00     0.316 C 
ATOM      2  O   UNL     1      -4.633  -2.360  -1.997  1.00  0.00    -0.251 OA
ENDROOT
BRANCH   1   3
ATOM      3  O   UNL     1      -3.282  -0.842  -0.971  1.00  0.00    -0.461 OA
BRANCH   3   4
ATOM      4  C   UNL     1      -2.107  -1.486  -1.507  1.00  0.00     0.188 C 
ATOM      5  N   UNL     1       0.421  -1.613   0.120  1.00  0.00    -0.317 N 
ATOM      6  C   UNL     1      -0.863  -2.348   0.576  1.00  0.00     0.189 C 
ATOM      7  C   UNL     1      -0.202  -0.256  -0.268  1.00  0.00     0.189 C 
ATOM      8  C   UNL     1      -1.561  -1.306   1.468  1.00  0.00     0.071 C 
ATOM      9  C   UNL     1      -1.742  -2.699  -0.637  1.00  0.00     0.110 C 
ATOM     10  C   UNL     1      -1.116   0.057   0.926  1.00  0.00     0.071 C 
ATOM     11  C   UNL     1      -1.011  -0.409  -1.570  1.00  0.00     0.110 C 
ATOM     12  C   UNL     1       1.189  -2.302  -1.008  1.00  0.00     0.335 C 
BRANCH   5  13
ATOM     13  C   UNL     1       1.419  -1.508   1.330  1.00  0.00     0.300 C 
BRANCH  13  14
ATOM     14  C   UNL     1       2.696  -0.737   1.099  1.00  0.00     0.006 A 
ATOM     15  C   UNL     1       3.869  -1.398   0.707  1.00  0.00     0.010 A 
ATOM     16  C   UNL     1       2.749   0.649   1.302  1.00  0.00     0.010 A 
ATOM     17  C   UNL     1       5.055  -0.685   0.500  1.00  0.00     0.009 A 
ATOM     18  C   UNL     1       3.938   1.357   1.093  1.00  0.00     0.009 A 
ATOM     19  C   UNL     1       5.109   0.703   0.688  1.00  0.00    -0.018 A 
BRANCH  19  20
ATOM     20  C   UNL     1       6.362   1.447   0.482  1.00  0.00    -0.018 A 
ATOM     21  C   UNL     1       7.529   1.102   1.186  1.00  0.00     0.009 A 
ATOM     22  C   UNL     1       6.427   2.520  -0.423  1.00  0.00     0.009 A 
ATOM     23  C   UNL     1       8.720   1.806   0.990  1.00  0.00     0.001 A 
ATOM     24  C   UNL     1       7.619   3.224  -0.621  1.00  0.00     0.001 A 
ATOM     25  C   UNL     1       8.765   2.866   0.086  1.00  0.00     0.000 A 
ENDBRANCH  19  20
ENDBRANCH  13  14
ENDBRANCH   5  13
ENDBRANCH   3   4
ENDBRANCH   1   3
BRANCH   1  26
ATOM     26  C   UNL     1      -5.657  -0.511  -0.791  1.00  0.00     0.155 C 
BRANCH  26  27
ATOM     27  C   UNL     1      -6.429  -1.412   0.186  1.00  0.00     0.176 C 
BRANCH  27  28
ATOM     28  O   UNL     1      -7.641  -0.787   0.597  1.00  0.00    -0.395 OA
ATOM     29  H   UNL     1      -8.191  -1.458   1.041  1.00  0.00     0.210 HD
ENDBRANCH  27  28
ENDBRANCH  26  27
BRANCH  26  30
ATOM     30  C   UNL     1      -5.223   0.857  -0.262  1.00  0.00    -0.032 A 
ATOM     31  C   UNL     1      -4.936   1.876  -1.190  1.00  0.00     0.005 A 
ATOM     32  C   UNL     1      -5.066   1.141   1.103  1.00  0.00     0.005 A 
ATOM     33  C   UNL     1      -4.510   3.137  -0.767  1.00  0.00     0.000 A 
ATOM     34  C   UNL     1      -4.643   2.406   1.525  1.00  0.00     0.000 A 
ATOM     35  C   UNL     1      -4.365   3.402   0.592  1.00  0.00     0.000 A 
ENDBRANCH  26  30
ENDBRANCH   1  26
TORSDOF 9
