REMARK SMILES COC(=O)[C@@H]1[C@H]2C[C@H]3c4[nH]c5ccccc5c4CCN3C[C@@H]2CC[C@@H]1O
REMARK SMILES IDX 5 1 25 2 24 3 23 4 22 5 21 6 20 7 19 8 18 9 17 10 9 11 10 12
REMARK SMILES IDX 11 13 16 14 15 15 14 16 13 17 12 18 8 19 7 20 6 21 3 23 4 24
REMARK SMILES IDX 2 25 1 26 26 27
REMARK H PARENT 10 22 26 28
ROOT
ATOM      1  C   UNL     1      -2.707  -0.130   0.717  1.00  0.00     0.131 C 
ATOM      2  C   UNL     1      -3.427  -1.442   1.058  1.00  0.00     0.129 C 
ATOM      3  C   UNL     1      -3.853  -2.240  -0.174  1.00  0.00     0.033 C 
ATOM      4  C   UNL     1      -2.737  -2.404  -1.211  1.00  0.00     0.008 C 
ATOM      5  C   UNL     1      -1.410  -1.770  -0.773  1.00  0.00     0.007 C 
ATOM      6  C   UNL     1      -0.347  -1.869  -1.878  1.00  0.00     0.089 C 
ATOM      7  N   UNL     1       0.933  -1.248  -1.523  1.00  0.00    -0.294 NA
ATOM      8  C   UNL     1       1.728  -2.064  -0.575  1.00  0.00     0.090 C 
ATOM      9  C   UNL     1       3.182  -1.548  -0.413  1.00  0.00     0.053 C 
ATOM     10  C   UNL     1       3.198  -0.066  -0.278  1.00  0.00    -0.016 A 
ATOM     11  C   UNL     1       2.092   0.687  -0.612  1.00  0.00     0.037 A 
ATOM     12  N   UNL     1       2.408   2.006  -0.435  1.00  0.00    -0.357 N 
ATOM     13  C   UNL     1       3.700   2.118   0.036  1.00  0.00     0.046 A 
ATOM     14  C   UNL     1       4.221   0.825   0.140  1.00  0.00     0.003 A 
ATOM     15  C   UNL     1       5.545   0.663   0.591  1.00  0.00     0.010 A 
ATOM     16  C   UNL     1       6.298   1.794   0.928  1.00  0.00     0.001 A 
ATOM     17  C   UNL     1       5.751   3.071   0.819  1.00  0.00     0.002 A 
ATOM     18  C   UNL     1       4.441   3.258   0.370  1.00  0.00     0.026 A 
ATOM     19  C   UNL     1       0.770   0.160  -1.080  1.00  0.00     0.104 C 
ATOM     20  C   UNL     1      -0.294   0.332   0.025  1.00  0.00     0.030 C 
ATOM     21  C   UNL     1      -1.632  -0.299  -0.384  1.00  0.00     0.012 C 
ATOM     22  H   UNL     1       1.795   2.788  -0.614  1.00  0.00     0.166 HD
ENDROOT
BRANCH   1  23
ATOM     23  C   UNL     1      -3.710   0.923   0.272  1.00  0.00     0.311 C 
ATOM     24  O   UNL     1      -4.423   0.833  -0.720  1.00  0.00    -0.252 OA
BRANCH  23  25
ATOM     25  O   UNL     1      -3.658   2.008   1.097  1.00  0.00    -0.469 OA
ATOM     26  C   UNL     1      -4.584   3.039   0.757  1.00  0.00     0.282 C 
ENDBRANCH  23  25
ENDBRANCH   1  23
BRANCH   2  27
ATOM     27  O   UNL     1      -4.537  -1.202   1.918  1.00  0.00    -0.392 OA
ATOM     28  H   UNL     1      -5.004  -2.046   2.047  1.00  0.00     0.210 HD
ENDBRANCH   2  27
TORSDOF 3
