REMARK SMILES CCN(C(C)=O)c1cccc(-c2ccnc3c(C#N)cnn23)c1
REMARK SMILES IDX 3 1 2 2 1 3 4 4 6 5 5 6 7 7 23 8 8 9 11 10 9 11 10 12 12 13
REMARK SMILES IDX 13 14 22 15 14 16 21 17 16 18 15 19 20 20 17 21 18 22 19 23
REMARK H PARENT
ROOT
ATOM      1  N   UNL     1      -2.721   0.552   0.080  1.00  0.00    -0.313 N 
ENDROOT
BRANCH   1   2
ATOM      2  C   UNL     1      -4.027   0.142   0.629  1.00  0.00     0.122 C 
ATOM      3  C   UNL     1      -4.713  -0.920  -0.222  1.00  0.00     0.028 C 
ENDBRANCH   1   2
BRANCH   1   4
ATOM      4  C   UNL     1      -2.651   1.531  -0.933  1.00  0.00     0.223 C 
ATOM      5  O   UNL     1      -1.664   1.770  -1.631  1.00  0.00    -0.275 OA
ATOM      6  C   UNL     1      -3.897   2.356  -1.178  1.00  0.00     0.115 C 
ENDBRANCH   1   4
BRANCH   1   7
ATOM      7  C   UNL     1      -1.537  -0.159   0.534  1.00  0.00     0.044 A 
ATOM      8  C   UNL     1      -0.239   0.338   0.314  1.00  0.00     0.036 A 
ATOM      9  C   UNL     1      -1.632  -1.364   1.252  1.00  0.00     0.026 A 
ATOM     10  C   UNL     1       0.918  -0.332   0.763  1.00  0.00     0.002 A 
ATOM     11  C   UNL     1      -0.497  -2.044   1.706  1.00  0.00     0.003 A 
ATOM     12  C   UNL     1       0.772  -1.532   1.461  1.00  0.00     0.010 A 
BRANCH  10  13
ATOM     13  C   UNL     1       2.263   0.229   0.507  1.00  0.00     0.076 C 
ATOM     14  C   UNL     1       2.525   1.495   0.884  1.00  0.00     0.049 C 
ATOM     15  N   UNL     1       3.287  -0.524  -0.104  1.00  0.00    -0.213 N 
ATOM     16  C   UNL     1       3.895   1.995   0.604  1.00  0.00     0.116 C 
ATOM     17  N   UNL     1       3.247  -1.816  -0.546  1.00  0.00    -0.173 NA
ATOM     18  C   UNL     1       4.557   0.043  -0.325  1.00  0.00     0.173 A 
ATOM     19  N   UNL     1       4.855   1.327   0.044  1.00  0.00    -0.236 NA
ATOM     20  C   UNL     1       4.459  -2.042  -1.051  1.00  0.00     0.157 A 
ATOM     21  C   UNL     1       5.306  -0.935  -0.939  1.00  0.00     0.117 A 
ATOM     22  C   UNL     1       6.659  -0.834  -1.364  1.00  0.00     0.105 C 
ATOM     23  N   UNL     1       7.762  -0.797  -1.723  1.00  0.00    -0.192 NA
ENDBRANCH  10  13
ENDBRANCH   1   7
TORSDOF 4
