REMARK SMILES CC(c1cc2ccccc2s1)N(O)C(N)=O
REMARK SMILES IDX 12 1 2 2 1 3 3 4 4 5 11 6 5 7 10 8 6 9 9 10 7 11 8 12 13 13
REMARK SMILES IDX 14 15 15 16 16 17
REMARK H PARENT 13 14 15 18 15 19
ROOT
ATOM      1  N   UNL     1       2.370   0.385   0.292  1.00  0.00    -0.198 N 
ENDROOT
BRANCH   1   2
ATOM      2  C   UNL     1       1.595  -0.467  -0.620  1.00  0.00     0.154 C 
ATOM      3  C   UNL     1       1.930  -1.951  -0.447  1.00  0.00     0.040 C 
BRANCH   2   4
ATOM      4  C   UNL     1       0.120  -0.180  -0.439  1.00  0.00     0.031 A 
ATOM      5  C   UNL     1      -0.764  -0.680   0.498  1.00  0.00     0.026 A 
ATOM      6  S   UNL     1      -0.664   0.920  -1.491  1.00  0.00    -0.138 S 
ATOM      7  C   UNL     1      -2.096  -0.166   0.360  1.00  0.00    -0.007 A 
ATOM      8  C   UNL     1      -2.182   0.733  -0.704  1.00  0.00     0.035 A 
ATOM      9  C   UNL     1      -3.266  -0.428   1.112  1.00  0.00     0.009 A 
ATOM     10  C   UNL     1      -3.394   1.370  -1.035  1.00  0.00     0.019 A 
ATOM     11  C   UNL     1      -4.472   0.202   0.788  1.00  0.00     0.001 A 
ATOM     12  C   UNL     1      -4.533   1.092  -0.275  1.00  0.00     0.001 A 
ENDBRANCH   2   4
ENDBRANCH   1   2
BRANCH   1  13
ATOM     13  O   UNL     1       2.053   0.198   1.668  1.00  0.00    -0.284 OA
ATOM     14  H   UNL     1       1.514   0.997   1.826  1.00  0.00     0.246 HD
ENDBRANCH   1  13
BRANCH   1  15
ATOM     15  C   UNL     1       3.705   0.633   0.038  1.00  0.00     0.339 C 
ATOM     16  N   UNL     1       4.400   1.088   1.120  1.00  0.00    -0.350 N 
ATOM     17  O   UNL     1       4.255   0.500  -1.049  1.00  0.00    -0.246 OA
ATOM     18  H   UNL     1       5.402   1.103   0.994  1.00  0.00     0.161 HD
ATOM     19  H   UNL     1       4.059   0.729   2.002  1.00  0.00     0.161 HD
ENDBRANCH   1  15
TORSDOF 4
