REMARK SMILES C[C@H](CSC(=O)c1ccccc1)C(=O)N1C[C@@H](Sc2ccccc2)C[C@H]1C(=O)O
REMARK SMILES IDX 13 1 14 2 2 3 1 4 3 5 4 6 5 7 6 8 7 9 8 10 12 11 9 12 11 13
REMARK SMILES IDX 10 14 15 15 16 16 26 17 17 18 25 19 27 20 28 21 29 22 18 24
REMARK SMILES IDX 19 25 20 26 24 27 21 28 23 29 22 30
REMARK H PARENT 29 23
ROOT
ATOM      1  C   UNL     1       0.102   2.207  -0.179  1.00  0.00     0.227 C 
ATOM      2  O   UNL     1       0.353   2.907   0.805  1.00  0.00    -0.275 OA
ENDROOT
BRANCH   1   3
ATOM      3  C   UNL     1      -1.246   2.320  -0.883  1.00  0.00     0.086 C 
ATOM      4  C   UNL     1      -1.356   3.710  -1.504  1.00  0.00     0.019 C 
BRANCH   3   5
ATOM      5  C   UNL     1      -2.334   2.040   0.158  1.00  0.00     0.091 C 
BRANCH   5   6
ATOM      6  S   UNL     1      -3.937   1.693  -0.640  1.00  0.00    -0.082 SA
BRANCH   6   7
ATOM      7  C   UNL     1      -4.822   1.257   0.817  1.00  0.00     0.219 C 
ATOM      8  O   UNL     1      -5.137   2.121   1.625  1.00  0.00    -0.282 OA
BRANCH   7   9
ATOM      9  C   UNL     1      -5.183  -0.175   1.037  1.00  0.00     0.029 A 
ATOM     10  C   UNL     1      -4.624  -1.235   0.309  1.00  0.00     0.013 A 
ATOM     11  C   UNL     1      -6.109  -0.463   2.050  1.00  0.00     0.013 A 
ATOM     12  C   UNL     1      -5.002  -2.554   0.581  1.00  0.00     0.001 A 
ATOM     13  C   UNL     1      -6.484  -1.782   2.319  1.00  0.00     0.001 A 
ATOM     14  C   UNL     1      -5.932  -2.826   1.582  1.00  0.00     0.000 A 
ENDBRANCH   7   9
ENDBRANCH   6   7
ENDBRANCH   5   6
ENDBRANCH   3   5
ENDBRANCH   1   3
BRANCH   1  15
ATOM     15  N   UNL     1       1.033   1.321  -0.672  1.00  0.00    -0.327 N 
ATOM     16  C   UNL     1       2.350   1.232  -0.054  1.00  0.00     0.135 C 
ATOM     17  C   UNL     1       0.955   0.502  -1.889  1.00  0.00     0.196 C 
ATOM     18  C   UNL     1       3.088   0.115  -0.789  1.00  0.00     0.074 C 
ATOM     19  C   UNL     1       2.419   0.135  -2.169  1.00  0.00     0.054 C 
BRANCH  17  20
ATOM     20  C   UNL     1       0.059  -0.732  -1.705  1.00  0.00     0.326 C 
ATOM     21  O   UNL     1      -0.818  -0.889  -0.870  1.00  0.00    -0.250 OA
BRANCH  20  22
ATOM     22  O   UNL     1       0.238  -1.662  -2.665  1.00  0.00    -0.480 OA
ATOM     23  H   UNL     1      -0.376  -2.385  -2.413  1.00  0.00     0.296 HD
ENDBRANCH  20  22
ENDBRANCH  17  20
BRANCH  18  24
ATOM     24  S   UNL     1       2.864  -1.521   0.016  1.00  0.00    -0.121 SA
BRANCH  24  25
ATOM     25  C   UNL     1       4.355  -1.577   0.989  1.00  0.00     0.008 A 
ATOM     26  C   UNL     1       5.396  -2.421   0.594  1.00  0.00     0.015 A 
ATOM     27  C   UNL     1       4.498  -0.806   2.144  1.00  0.00     0.015 A 
ATOM     28  C   UNL     1       6.581  -2.469   1.330  1.00  0.00     0.001 A 
ATOM     29  C   UNL     1       5.683  -0.856   2.880  1.00  0.00     0.001 A 
ATOM     30  C   UNL     1       6.726  -1.681   2.469  1.00  0.00     0.000 A 
ENDBRANCH  24  25
ENDBRANCH  18  24
ENDBRANCH   1  15
TORSDOF 10
