REMARK SMILES CC(=O)O[C@H]1CC[C@@]2(C)C(=CC[C@@H]3[C@@H]2CC[C@]2(C)C(c4cccnc4)=CC[C@@H]32)C1
REMARK SMILES IDX 4 1 2 2 3 3 1 4 5 5 6 6 29 7 7 8 10 9 8 10 11 11 14 12 12 13
REMARK SMILES IDX 15 14 13 15 16 16 28 17 17 18 27 19 19 20 26 21 9 22 18 23
REMARK SMILES IDX 20 24 21 25 25 26 22 27 24 28 23 29
REMARK H PARENT
ROOT
ATOM      1  O   UNL     1       5.888   1.276   0.579  1.00  0.00    -0.462 OA
ENDROOT
BRANCH   1   2
ATOM      2  C   UNL     1       6.867   0.474   1.078  1.00  0.00     0.302 C 
ATOM      3  O   UNL     1       6.693  -0.561   1.704  1.00  0.00    -0.253 OA
ATOM      4  C   UNL     1       8.212   1.041   0.739  1.00  0.00     0.139 C 
ENDBRANCH   1   2
BRANCH   1   5
ATOM      5  C   UNL     1       4.533   0.855   0.837  1.00  0.00     0.180 C 
ATOM      6  C   UNL     1       3.650   2.097   0.717  1.00  0.00     0.046 C 
ATOM      7  C   UNL     1       4.105  -0.207  -0.181  1.00  0.00     0.076 C 
ATOM      8  C   UNL     1       2.171   1.752   0.879  1.00  0.00     0.015 C 
ATOM      9  C   UNL     1       2.626  -0.525  -0.095  1.00  0.00    -0.064 C 
ATOM     10  C   UNL     1       1.655   0.665  -0.110  1.00  0.00    -0.008 C 
ATOM     11  C   UNL     1       2.216  -1.803   0.002  1.00  0.00    -0.027 C 
ATOM     12  C   UNL     1       0.213   0.215   0.356  1.00  0.00     0.003 C 
ATOM     13  C   UNL     1       0.786  -2.237   0.071  1.00  0.00     0.031 C 
ATOM     14  C   UNL     1      -0.873   1.319   0.230  1.00  0.00     0.006 C 
ATOM     15  C   UNL     1      -0.206  -1.129  -0.311  1.00  0.00     0.001 C 
ATOM     16  C   UNL     1      -2.302   0.845   0.563  1.00  0.00     0.012 C 
ATOM     17  C   UNL     1      -1.626  -1.484   0.137  1.00  0.00     0.007 C 
ATOM     18  C   UNL     1      -2.680  -0.411  -0.240  1.00  0.00    -0.004 C 
ATOM     19  C   UNL     1      -2.248  -2.805  -0.305  1.00  0.00     0.032 C 
ATOM     20  C   UNL     1      -3.927  -1.196   0.152  1.00  0.00    -0.037 C 
ATOM     21  C   UNL     1      -3.682  -2.519   0.043  1.00  0.00    -0.022 C 
ATOM     22  C   UNL     1       1.627   1.245  -1.544  1.00  0.00     0.016 C 
ATOM     23  C   UNL     1      -2.735  -0.104  -1.758  1.00  0.00     0.017 C 
BRANCH  20  24
ATOM     24  C   UNL     1      -5.218  -0.619   0.551  1.00  0.00    -0.004 A 
ATOM     25  C   UNL     1      -5.684   0.608   0.076  1.00  0.00     0.011 A 
ATOM     26  C   UNL     1      -6.047  -1.270   1.468  1.00  0.00     0.119 A 
ATOM     27  C   UNL     1      -6.914   1.113   0.502  1.00  0.00     0.021 A 
ATOM     28  N   UNL     1      -7.247  -0.809   1.905  1.00  0.00    -0.264 NA
ATOM     29  C   UNL     1      -7.652   0.375   1.408  1.00  0.00     0.111 A 
ENDBRANCH  20  24
ENDBRANCH   1   5
TORSDOF 3
