REMARK SMILES NC(=O)c1ncn([C@@H]2O[C@H](CO)[C@@H](O)[C@H]2O)c1N
REMARK SMILES IDX 8 1 9 2 10 3 13 4 15 5 7 6 4 7 17 8 5 9 6 10 2 11 1 12 3 13
REMARK SMILES IDX 18 16 16 19 11 21 12 22 14 24
REMARK H PARENT 1 14 1 15 18 17 18 18 16 20 12 23 14 25
ROOT
ATOM      1  C   UNL     1      -0.435   0.948  -0.144  1.00  0.00     0.253 C 
ATOM      2  O   UNL     1      -1.228   0.462   0.967  1.00  0.00    -0.347 OA
ATOM      3  C   UNL     1      -2.542   0.121   0.446  1.00  0.00     0.178 C 
ATOM      4  C   UNL     1      -2.550   0.458  -1.042  1.00  0.00     0.179 C 
ATOM      5  C   UNL     1      -1.078   0.401  -1.417  1.00  0.00     0.195 C 
ENDROOT
BRANCH   1   6
ATOM      6  N   UNL     1       0.960   0.564   0.004  1.00  0.00    -0.287 N 
ATOM      7  C   UNL     1       2.865  -0.494   0.256  1.00  0.00     0.169 A 
ATOM      8  C   UNL     1       1.494  -0.634   0.410  1.00  0.00     0.138 A 
ATOM      9  N   UNL     1       3.166   0.773  -0.231  1.00  0.00    -0.229 NA
ATOM     10  C   UNL     1       2.005   1.367  -0.380  1.00  0.00     0.204 A 
BRANCH   7  11
ATOM     11  C   UNL     1       3.893  -1.485   0.561  1.00  0.00     0.271 C 
ATOM     12  N   UNL     1       5.159  -1.065   0.267  1.00  0.00    -0.364 N 
ATOM     13  O   UNL     1       3.675  -2.593   1.044  1.00  0.00    -0.268 OA
ATOM     14  H   UNL     1       5.942  -1.671   0.447  1.00  0.00     0.160 HD
ATOM     15  H   UNL     1       5.287  -0.137  -0.119  1.00  0.00     0.160 HD
ENDBRANCH   7  11
BRANCH   8  16
ATOM     16  N   UNL     1       0.735  -1.671   0.840  1.00  0.00    -0.383 N 
ATOM     17  H   UNL     1       1.255  -2.459   1.241  1.00  0.00     0.158 HD
ATOM     18  H   UNL     1      -0.065  -1.448   1.429  1.00  0.00     0.158 HD
ENDBRANCH   8  16
ENDBRANCH   1   6
BRANCH   5  19
ATOM     19  O   UNL     1      -0.815   1.198  -2.572  1.00  0.00    -0.386 OA
ATOM     20  H   UNL     1      -1.481   1.918  -2.554  1.00  0.00     0.211 HD
ENDBRANCH   5  19
BRANCH   3  21
ATOM     21  C   UNL     1      -2.792  -1.362   0.720  1.00  0.00     0.191 C 
BRANCH  21  22
ATOM     22  O   UNL     1      -2.816  -1.591   2.128  1.00  0.00    -0.394 OA
ATOM     23  H   UNL     1      -2.111  -1.042   2.521  1.00  0.00     0.210 HD
ENDBRANCH  21  22
ENDBRANCH   3  21
BRANCH   4  24
ATOM     24  O   UNL     1      -2.994   1.812  -1.253  1.00  0.00    -0.387 OA
ATOM     25  H   UNL     1      -3.941   1.851  -1.022  1.00  0.00     0.211 HD
ENDBRANCH   4  24
TORSDOF 7
