REMARK SMILES CC(=O)O[C@@H]1C(=O)O[C@H]2[C@@H]1OC(=O)[C@@H]2OC(C)=O
REMARK SMILES IDX 5 1 10 2 11 3 12 4 13 5 14 6 9 7 8 8 6 9 7 10 4 11 2 12 3 13
REMARK SMILES IDX 1 14 15 15 16 16 18 17 17 18
REMARK H PARENT
ROOT
ATOM      1  C   UNL     1      -1.623   0.742   0.359  1.00  0.00     0.330 C 
ATOM      2  C   UNL     1      -0.260   0.093   0.469  1.00  0.00     0.274 C 
ATOM      3  O   UNL     1      -0.224  -1.219  -0.099  1.00  0.00    -0.451 OA
ATOM      4  C   UNL     1       0.911  -1.351  -0.850  1.00  0.00     0.352 C 
ATOM      5  O   UNL     1       1.296  -2.419  -1.298  1.00  0.00    -0.248 OA
ATOM      6  C   UNL     1       1.624  -0.019  -0.973  1.00  0.00     0.330 C 
ATOM      7  C   UNL     1       0.591   0.944  -0.428  1.00  0.00     0.274 C 
ATOM      8  O   UNL     1      -0.286   1.401  -1.468  1.00  0.00    -0.451 OA
ATOM      9  C   UNL     1      -1.590   1.213  -1.082  1.00  0.00     0.352 C 
ATOM     10  O   UNL     1      -2.545   1.407  -1.814  1.00  0.00    -0.248 OA
ENDROOT
BRANCH   1  11
ATOM     11  O   UNL     1      -2.664  -0.165   0.686  1.00  0.00    -0.446 OA
BRANCH  11  12
ATOM     12  C   UNL     1      -3.850   0.433   0.984  1.00  0.00     0.303 C 
ATOM     13  O   UNL     1      -4.014   1.637   1.115  1.00  0.00    -0.253 OA
ATOM     14  C   UNL     1      -4.918  -0.600   1.168  1.00  0.00     0.139 C 
ENDBRANCH  11  12
ENDBRANCH   1  11
BRANCH   6  15
ATOM     15  O   UNL     1       2.771  -0.018  -0.118  1.00  0.00    -0.446 OA
BRANCH  15  16
ATOM     16  C   UNL     1       3.937  -0.365  -0.731  1.00  0.00     0.303 C 
ATOM     17  O   UNL     1       4.073  -0.571  -1.926  1.00  0.00    -0.253 OA
ATOM     18  C   UNL     1       5.046  -0.434   0.274  1.00  0.00     0.139 C 
ENDBRANCH  15  16
ENDBRANCH   6  15
TORSDOF 4
