REMARK SMILES CC(=O)Nc1c(I)cc(I)c(C(=O)O)c1I
REMARK SMILES IDX 5 1 15 2 16 3 11 4 9 5 10 6 8 7 6 8 7 9 4 10 2 11 3 12 1 13
REMARK SMILES IDX 12 15 13 16 14 17
REMARK H PARENT 4 14 14 18
ROOT
ATOM      1  C   UNL     1      -0.414  -0.553  -0.021  1.00  0.00     0.069 A 
ATOM      2  C   UNL     1       0.786   0.042  -0.476  1.00  0.00     0.053 A 
ATOM      3  I   UNL     1       0.830   1.142  -2.321  1.00  0.00    -0.041 I 
ATOM      4  C   UNL     1       2.001  -0.232   0.188  1.00  0.00     0.088 A 
ATOM      5  C   UNL     1       2.031  -1.133   1.262  1.00  0.00     0.030 A 
ATOM      6  I   UNL     1       3.782  -1.614   2.324  1.00  0.00    -0.043 I 
ATOM      7  C   UNL     1       0.860  -1.777   1.667  1.00  0.00     0.032 A 
ATOM      8  C   UNL     1      -0.348  -1.496   1.023  1.00  0.00     0.039 A 
ATOM      9  I   UNL     1      -2.058  -2.510   1.725  1.00  0.00    -0.042 I 
ENDROOT
BRANCH   1  10
ATOM     10  N   UNL     1      -1.688  -0.271  -0.588  1.00  0.00    -0.324 N 
ATOM     11  C   UNL     1      -2.201   1.019  -0.598  1.00  0.00     0.221 C 
ATOM     12  O   UNL     1      -1.637   2.011  -0.149  1.00  0.00    -0.275 OA
ATOM     13  C   UNL     1      -3.595   1.090  -1.164  1.00  0.00     0.114 C 
ATOM     14  H   UNL     1      -2.399  -0.973  -0.408  1.00  0.00     0.169 HD
ENDBRANCH   1  10
BRANCH   4  15
ATOM     15  C   UNL     1       3.254   0.384  -0.264  1.00  0.00     0.337 C 
ATOM     16  O   UNL     1       4.063  -0.104  -1.027  1.00  0.00    -0.246 OA
BRANCH  15  17
ATOM     17  O   UNL     1       3.408   1.590   0.308  1.00  0.00    -0.478 OA
ATOM     18  H   UNL     1       4.253   1.932  -0.052  1.00  0.00     0.297 HD
ENDBRANCH  15  17
ENDBRANCH   4  15
TORSDOF 3
