REMARK SMILES CC(=O)Nc1ccc(OC(=O)c2ccccc2O)cc1
REMARK SMILES IDX 10 1 11 2 9 3 8 4 5 5 6 6 20 7 7 8 19 9 4 10 2 11 3 12 1 13
REMARK SMILES IDX 12 15 17 16 13 17 16 18 14 19 15 20 18 21
REMARK H PARENT 4 14 18 22
ROOT
ATOM      1  C   UNL     1      -1.906   0.729  -0.605  1.00  0.00     0.347 C 
ATOM      2  O   UNL     1      -1.378   1.607  -1.270  1.00  0.00    -0.246 OA
ENDROOT
BRANCH   1   3
ATOM      3  O   UNL     1      -1.263  -0.261   0.117  1.00  0.00    -0.423 OA
BRANCH   3   4
ATOM      4  C   UNL     1       0.137  -0.258   0.063  1.00  0.00     0.131 A 
ATOM      5  C   UNL     1       2.929  -0.369   0.075  1.00  0.00     0.041 A 
ATOM      6  C   UNL     1       2.222  -0.219   1.271  1.00  0.00     0.030 A 
ATOM      7  C   UNL     1       2.215  -0.475  -1.129  1.00  0.00     0.030 A 
ATOM      8  C   UNL     1       0.825  -0.169   1.269  1.00  0.00     0.049 A 
ATOM      9  C   UNL     1       0.818  -0.430  -1.138  1.00  0.00     0.049 A 
BRANCH   5  10
ATOM     10  N   UNL     1       4.336  -0.422  -0.008  1.00  0.00    -0.326 N 
ATOM     11  C   UNL     1       5.245  -0.353   1.033  1.00  0.00     0.221 C 
ATOM     12  O   UNL     1       4.996  -0.244   2.228  1.00  0.00    -0.275 OA
ATOM     13  C   UNL     1       6.668  -0.431   0.540  1.00  0.00     0.114 C 
ATOM     14  H   UNL     1       4.721  -0.519  -0.939  1.00  0.00     0.169 HD
ENDBRANCH   5  10
ENDBRANCH   3   4
ENDBRANCH   1   3
BRANCH   1  15
ATOM     15  C   UNL     1      -3.382   0.596  -0.451  1.00  0.00     0.102 A 
ATOM     16  C   UNL     1      -4.038  -0.480   0.166  1.00  0.00     0.130 A 
ATOM     17  C   UNL     1      -4.159   1.641  -0.984  1.00  0.00     0.019 A 
ATOM     18  C   UNL     1      -5.433  -0.503   0.248  1.00  0.00     0.047 A 
ATOM     19  C   UNL     1      -5.553   1.614  -0.899  1.00  0.00     0.001 A 
ATOM     20  C   UNL     1      -6.190   0.541  -0.283  1.00  0.00     0.004 A 
BRANCH  16  21
ATOM     21  O   UNL     1      -3.420  -1.569   0.718  1.00  0.00    -0.507 OA
ATOM     22  H   UNL     1      -2.453  -1.463   0.665  1.00  0.00     0.293 HD
ENDBRANCH  16  21
ENDBRANCH   1  15
TORSDOF 5
