REMARK SMILES CC(=O)c1ccc2c(c1)N(CCCN1CCN(CCO)CC1)c1ccccc1S2
REMARK SMILES IDX 13 1 12 2 11 3 10 4 4 5 5 6 9 7 6 8 8 9 7 10 29 11 23 12
REMARK SMILES IDX 28 13 24 14 27 15 25 16 26 17 2 18 3 19 1 20 14 21 15 22
REMARK SMILES IDX 22 23 16 24 21 25 17 26 18 27 19 28 20 29
REMARK H PARENT 20 30
ROOT
ATOM      1  C   UNL     1       0.950  -0.892  -0.608  1.00  0.00     0.086 C 
ENDROOT
BRANCH   1   2
ATOM      2  C   UNL     1      -0.370  -0.120  -0.739  1.00  0.00     0.037 C 
BRANCH   2   3
ATOM      3  C   UNL     1      -1.010   0.175   0.627  1.00  0.00     0.124 C 
BRANCH   3   4
ATOM      4  N   UNL     1      -2.375   0.739   0.475  1.00  0.00    -0.340 N 
ATOM      5  C   UNL     1      -4.358  -2.480   0.274  1.00  0.00     0.019 A 
ATOM      6  C   UNL     1      -5.654  -2.010   0.453  1.00  0.00     0.013 A 
ATOM      7  C   UNL     1      -3.289  -1.568   0.284  1.00  0.00     0.039 A 
ATOM      8  C   UNL     1      -5.872  -0.649   0.636  1.00  0.00     0.018 A 
ATOM      9  C   UNL     1      -3.470  -0.176   0.477  1.00  0.00     0.056 A 
ATOM     10  C   UNL     1      -4.800   0.263   0.646  1.00  0.00     0.036 A 
ATOM     11  S   UNL     1      -5.252   1.958   0.915  1.00  0.00    -0.086 SA
ATOM     12  C   UNL     1      -2.486   2.162   0.444  1.00  0.00     0.055 A 
ATOM     13  C   UNL     1      -3.726   2.813   0.605  1.00  0.00     0.036 A 
ATOM     14  C   UNL     1      -1.370   3.003   0.228  1.00  0.00     0.027 A 
ATOM     15  C   UNL     1      -3.823   4.218   0.559  1.00  0.00     0.017 A 
ATOM     16  C   UNL     1      -1.470   4.399   0.182  1.00  0.00     0.002 A 
ATOM     17  C   UNL     1      -2.701   5.009   0.348  1.00  0.00     0.001 A 
BRANCH   5  18
ATOM     18  C   UNL     1      -4.157  -3.947   0.070  1.00  0.00     0.159 C 
ATOM     19  O   UNL     1      -5.129  -4.699   0.033  1.00  0.00    -0.295 OA
ATOM     20  C   UNL     1      -2.757  -4.482  -0.089  1.00  0.00     0.093 C 
ENDBRANCH   5  18
ENDBRANCH   3   4
ENDBRANCH   2   3
ENDBRANCH   1   2
BRANCH   1  21
ATOM     21  N   UNL     1       1.954  -0.196   0.209  1.00  0.00    -0.301 NA
ATOM     22  C   UNL     1       2.560   0.961  -0.481  1.00  0.00     0.100 C 
ATOM     23  C   UNL     1       3.050  -1.113   0.600  1.00  0.00     0.100 C 
ATOM     24  C   UNL     1       3.527   0.617  -1.640  1.00  0.00     0.100 C 
ATOM     25  C   UNL     1       4.004  -1.522  -0.548  1.00  0.00     0.100 C 
ATOM     26  N   UNL     1       4.523  -0.428  -1.378  1.00  0.00    -0.299 NA
BRANCH  26  27
ATOM     27  C   UNL     1       5.856   0.058  -0.993  1.00  0.00     0.112 C 
BRANCH  27  28
ATOM     28  C   UNL     1       6.056   0.680   0.397  1.00  0.00     0.171 C 
BRANCH  28  29
ATOM     29  O   UNL     1       6.098  -0.320   1.409  1.00  0.00    -0.395 OA
ATOM     30  H   UNL     1       6.237   0.139   2.256  1.00  0.00     0.210 HD
ENDBRANCH  28  29
ENDBRANCH  27  28
ENDBRANCH  26  27
ENDBRANCH   1  21
TORSDOF 8
