REMARK SMILES CC[C@@]1(O)C[C@H](O[C@H]2C[C@H](N(C)C)[C@H](O[C@H]3C[C@H](O)[C@H](O[C@H]4CCC(=O)[C@H](C)O4)[C@H](C)O3)[C@H](C)O2)c2c(cc3c(c2O)C(=O)c2c(O)cccc2C3=O)[C@H]1C(=O)OC
REMARK SMILES IDX 8 1 9 2 10 3 14 4 33 5 34 6 35 7 7 8 6 9 3 10 5 11 54 12
REMARK SMILES IDX 37 13 36 14 38 15 41 16 39 17 40 18 52 19 43 20 53 21 51 22
REMARK SMILES IDX 45 23 44 24 50 25 46 26 49 27 48 28 2 29 1 30 4 31 55 33
REMARK SMILES IDX 56 34 57 35 58 36 42 37 47 39 11 41 12 42 13 43 15 44 16 45
REMARK SMILES IDX 17 46 32 47 18 48 30 49 20 50 31 51 19 52 21 54 22 55 23 56
REMARK SMILES IDX 29 57 24 58 27 59 25 60 26 61 28 62
REMARK H PARENT 4 32 42 38 47 40 19 53
ROOT
ATOM      1  C   UNL     1      -1.288  -0.337  -0.937  1.00  0.00     0.252 C 
ATOM      2  C   UNL     1      -0.671   0.852  -0.186  1.00  0.00     0.084 C 
ATOM      3  C   UNL     1       0.857   0.862  -0.370  1.00  0.00     0.092 C 
ATOM      4  C   UNL     1       1.368  -0.433   0.340  1.00  0.00     0.167 C 
ATOM      5  C   UNL     1       0.436  -1.652   0.066  1.00  0.00     0.149 C 
ATOM      6  C   UNL     1       1.179  -2.972  -0.116  1.00  0.00     0.041 C 
ATOM      7  O   UNL     1      -0.410  -1.460  -1.073  1.00  0.00    -0.347 OA
ENDROOT
BRANCH   1   8
ATOM      8  O   UNL     1      -2.476  -0.743  -0.258  1.00  0.00    -0.344 OA
BRANCH   8   9
ATOM      9  C   UNL     1      -3.650  -0.689  -1.071  1.00  0.00     0.158 C 
ATOM     10  C   UNL     1      -4.899  -2.166  -2.831  1.00  0.00     0.085 C 
ATOM     11  C   UNL     1      -3.666  -1.970  -1.917  1.00  0.00     0.073 C 
ATOM     12  C   UNL     1      -6.163  -1.403  -2.332  1.00  0.00     0.161 C 
ATOM     13  C   UNL     1      -6.127  -1.042  -0.852  1.00  0.00    -0.021 A 
ATOM     14  C   UNL     1      -4.924  -0.624  -0.238  1.00  0.00     0.028 A 
ATOM     15  C   UNL     1      -7.329  -1.034  -0.124  1.00  0.00     0.018 A 
ATOM     16  C   UNL     1      -4.984  -0.122   1.081  1.00  0.00     0.133 A 
ATOM     17  C   UNL     1      -7.354  -0.599   1.205  1.00  0.00     0.038 A 
ATOM     18  C   UNL     1      -6.189  -0.137   1.811  1.00  0.00     0.076 A 
ATOM     19  C   UNL     1      -8.631  -0.610   1.944  1.00  0.00     0.194 C 
ATOM     20  C   UNL     1      -6.237   0.338   3.214  1.00  0.00     0.201 C 
ATOM     21  O   UNL     1      -9.654  -1.007   1.402  1.00  0.00    -0.289 OA
ATOM     22  C   UNL     1      -8.662  -0.155   3.344  1.00  0.00     0.037 A 
ATOM     23  C   UNL     1      -7.503   0.298   3.968  1.00  0.00     0.076 A 
ATOM     24  O   UNL     1      -5.221   0.773   3.760  1.00  0.00    -0.288 OA
ATOM     25  C   UNL     1      -9.878  -0.187   4.040  1.00  0.00     0.013 A 
ATOM     26  C   UNL     1      -7.560   0.710   5.306  1.00  0.00     0.127 A 
ATOM     27  C   UNL     1      -9.928   0.218   5.371  1.00  0.00     0.005 A 
ATOM     28  C   UNL     1      -8.768   0.669   6.004  1.00  0.00     0.047 A 
BRANCH  10  29
ATOM     29  C   UNL     1      -4.513  -1.925  -4.318  1.00  0.00     0.033 C 
ATOM     30  C   UNL     1      -5.557  -2.389  -5.337  1.00  0.00     0.007 C 
ENDBRANCH  10  29
BRANCH  10  31
ATOM     31  O   UNL     1      -5.216  -3.582  -2.766  1.00  0.00    -0.389 OA
ATOM     32  H   UNL     1      -4.394  -4.083  -2.882  1.00  0.00     0.211 HD
ENDBRANCH  10  31
BRANCH  12  33
ATOM     33  C   UNL     1      -6.542  -0.163  -3.142  1.00  0.00     0.316 C 
ATOM     34  O   UNL     1      -7.621  -0.017  -3.702  1.00  0.00    -0.251 OA
BRANCH  33  35
ATOM     35  O   UNL     1      -5.545   0.769  -3.132  1.00  0.00    -0.468 OA
ATOM     36  C   UNL     1      -5.875   1.963  -3.845  1.00  0.00     0.282 C 
ENDBRANCH  33  35
ENDBRANCH  12  33
BRANCH  16  37
ATOM     37  O   UNL     1      -3.842   0.411   1.634  1.00  0.00    -0.507 OA
ATOM     38  H   UNL     1      -4.026   0.692   2.554  1.00  0.00     0.293 HD
ENDBRANCH  16  37
BRANCH  26  39
ATOM     39  O   UNL     1      -6.468   1.176   5.996  1.00  0.00    -0.507 OA
ATOM     40  H   UNL     1      -5.696   1.201   5.392  1.00  0.00     0.293 HD
ENDBRANCH  26  39
ENDBRANCH   8   9
ENDBRANCH   1   8
BRANCH   3  41
ATOM     41  N   UNL     1       1.088   1.133  -1.813  1.00  0.00    -0.304 NA
ATOM     42  C   UNL     1       2.086   0.314  -2.489  1.00  0.00     0.105 C 
ATOM     43  C   UNL     1       1.361   2.551  -2.055  1.00  0.00     0.105 C 
ENDBRANCH   3  41
BRANCH   4  44
ATOM     44  O   UNL     1       2.751  -0.706   0.088  1.00  0.00    -0.345 OA
BRANCH  44  45
ATOM     45  C   UNL     1       3.655   0.094   0.859  1.00  0.00     0.253 C 
ATOM     46  C   UNL     1       4.398  -0.849   1.817  1.00  0.00     0.096 C 
ATOM     47  O   UNL     1       4.528   0.816  -0.011  1.00  0.00    -0.347 OA
ATOM     48  C   UNL     1       5.792  -0.342   2.098  1.00  0.00     0.151 C 
ATOM     49  C   UNL     1       5.664   0.059  -0.414  1.00  0.00     0.150 C 
ATOM     50  C   UNL     1       6.600  -0.210   0.790  1.00  0.00     0.179 C 
ATOM     51  C   UNL     1       6.361   0.801  -1.547  1.00  0.00     0.041 C 
BRANCH  48  52
ATOM     52  O   UNL     1       5.694   0.915   2.778  1.00  0.00    -0.390 OA
ATOM     53  H   UNL     1       6.461   1.454   2.505  1.00  0.00     0.211 HD
ENDBRANCH  48  52
BRANCH  50  54
ATOM     54  O   UNL     1       7.586   0.825   0.965  1.00  0.00    -0.344 OA
BRANCH  54  55
ATOM     55  C   UNL     1       8.828   0.347   1.489  1.00  0.00     0.251 C 
ATOM     56  C   UNL     1       9.763  -0.039   0.327  1.00  0.00     0.070 C 
ATOM     57  O   UNL     1       9.390   1.329   2.356  1.00  0.00    -0.342 OA
ATOM     58  C   UNL     1      11.154   0.555   0.476  1.00  0.00     0.084 C 
ATOM     59  C   UNL     1       9.915   2.465   1.666  1.00  0.00     0.185 C 
ATOM     60  C   UNL     1      11.007   2.045   0.680  1.00  0.00     0.161 C 
ATOM     61  O   UNL     1      11.742   2.850   0.106  1.00  0.00    -0.297 OA
ATOM     62  C   UNL     1      10.500   3.397   2.719  1.00  0.00     0.047 C 
ENDBRANCH  54  55
ENDBRANCH  50  54
ENDBRANCH  44  45
ENDBRANCH   4  44
TORSDOF 14
