REMARK SMILES CCOc1ccc(S(=O)(=O)O)c2cccnc12
REMARK SMILES IDX 4 1 17 2 16 3 15 4 14 5 13 6 12 7 7 8 6 9 5 10 3 11 2 12
REMARK SMILES IDX 1 13 8 14 9 15 10 16 11 17
REMARK H PARENT 11 18
ROOT
ATOM      1  C   UNL     1       0.969   0.594   0.447  1.00  0.00     0.145 A 
ATOM      2  C   UNL     1       0.151  -0.345  -0.217  1.00  0.00     0.113 A 
ATOM      3  N   UNL     1       0.684  -1.327  -0.983  1.00  0.00    -0.252 NA
ATOM      4  C   UNL     1      -0.113  -2.222  -1.600  1.00  0.00     0.112 A 
ATOM      5  C   UNL     1      -1.479  -2.205  -1.503  1.00  0.00     0.021 A 
ATOM      6  C   UNL     1      -2.052  -1.204  -0.731  1.00  0.00     0.013 A 
ATOM      7  C   UNL     1      -1.258  -0.235  -0.066  1.00  0.00     0.025 A 
ATOM      8  C   UNL     1      -1.787   0.818   0.733  1.00  0.00     0.104 A 
ATOM      9  C   UNL     1      -0.954   1.733   1.378  1.00  0.00     0.027 A 
ATOM     10  C   UNL     1       0.417   1.617   1.231  1.00  0.00     0.050 A 
ENDROOT
BRANCH   1  11
ATOM     11  O   UNL     1       2.345   0.676   0.441  1.00  0.00    -0.492 OA
BRANCH  11  12
ATOM     12  C   UNL     1       3.097  -0.355  -0.193  1.00  0.00     0.226 C 
ATOM     13  C   UNL     1       4.569  -0.070   0.057  1.00  0.00     0.049 C 
ENDBRANCH  11  12
ENDBRANCH   1  11
BRANCH   8  14
ATOM     14  S   UNL     1      -3.539   1.044   0.937  1.00  0.00     0.295 S 
ATOM     15  O   UNL     1      -4.081  -0.156   1.534  1.00  0.00    -0.194 OA
ATOM     16  O   UNL     1      -3.773   2.350   1.517  1.00  0.00    -0.194 OA
BRANCH  14  17
ATOM     17  O   UNL     1      -4.116   1.167  -0.565  1.00  0.00    -0.282 OA
ATOM     18  H   UNL     1      -4.574   2.032  -0.632  1.00  0.00     0.234 HD
ENDBRANCH  14  17
ENDBRANCH   8  14
TORSDOF 4
