REMARK SMILES CN(C)Cc1nnc2n1-c1ccc(Cl)cc1C(c1ccccc1)=NC2
REMARK SMILES IDX 4 1 2 2 1 3 3 4 5 5 6 6 9 7 7 8 10 9 8 10 11 11 16 12 25 13
REMARK SMILES IDX 12 14 17 15 15 16 24 17 13 18 14 19 18 20 19 21 23 22 20 23
REMARK SMILES IDX 22 24 21 25
REMARK H PARENT
ROOT
ATOM      1  C   UNL     1      -2.689   0.686   1.352  1.00  0.00     0.162 C 
ENDROOT
BRANCH   1   2
ATOM      2  N   UNL     1      -4.161   0.603   1.401  1.00  0.00    -0.302 NA
ATOM      3  C   UNL     1      -4.744   0.023   0.196  1.00  0.00     0.105 C 
ATOM      4  C   UNL     1      -4.743   1.917   1.670  1.00  0.00     0.105 C 
ENDBRANCH   1   2
BRANCH   1   5
ATOM      5  C   UNL     1      -2.006  -0.650   1.373  1.00  0.00     0.151 A 
ATOM      6  N   UNL     1      -2.227  -1.590   2.275  1.00  0.00    -0.134 NA
ATOM      7  N   UNL     1      -0.921  -1.029   0.593  1.00  0.00    -0.280 N 
ATOM      8  N   UNL     1      -1.271  -2.557   2.143  1.00  0.00    -0.133 NA
ATOM      9  C   UNL     1      -0.388  -0.451  -0.588  1.00  0.00     0.058 A 
ATOM     10  C   UNL     1      -0.471  -2.200   1.165  1.00  0.00     0.159 A 
ATOM     11  C   UNL     1      -1.263   0.115  -1.529  1.00  0.00     0.029 A 
ATOM     12  C   UNL     1       0.989  -0.524  -0.882  1.00  0.00     0.026 A 
ATOM     13  C   UNL     1       0.700  -2.944   0.648  1.00  0.00     0.220 C 
ATOM     14  C   UNL     1      -0.778   0.606  -2.744  1.00  0.00     0.023 A 
ATOM     15  C   UNL     1       2.013  -1.035   0.086  1.00  0.00     0.075 C 
ATOM     16  C   UNL     1       1.460  -0.049  -2.119  1.00  0.00     0.033 A 
ATOM     17  N   UNL     1       1.903  -2.129   0.760  1.00  0.00    -0.276 NA
ATOM     18  C   UNL     1       0.579   0.517  -3.036  1.00  0.00     0.041 A 
ATOM     19  Cl  UNL     1       1.170   1.107  -4.539  1.00  0.00    -0.084 Cl
BRANCH  15  20
ATOM     20  C   UNL     1       3.260  -0.229   0.299  1.00  0.00     0.000 A 
ATOM     21  C   UNL     1       3.231   1.171   0.302  1.00  0.00     0.010 A 
ATOM     22  C   UNL     1       4.468  -0.898   0.530  1.00  0.00     0.010 A 
ATOM     23  C   UNL     1       4.410   1.893   0.504  1.00  0.00     0.001 A 
ATOM     24  C   UNL     1       5.643  -0.173   0.732  1.00  0.00     0.001 A 
ATOM     25  C   UNL     1       5.614   1.221   0.714  1.00  0.00     0.000 A 
ENDBRANCH  15  20
ENDBRANCH   1   5
TORSDOF 3
