REMARK SMILES C=CC[N@@+]12CC[C@@]34c5ccccc5N5C=C6[C@H]7C[C@H]8[C@@]9(CC[N@@+]8(CC=C)C/C7=C/CO)c7ccccc7N(C=C([C@@H](C[C@@H]31)/C(=C\CO)C2)[C@H]54)[C@@H]69
REMARK SMILES IDX 45 1 44 2 48 3 4 4 5 5 6 6 7 7 43 8 42 9 41 10 40 11 39 12
REMARK SMILES IDX 38 13 50 14 16 15 15 16 14 17 49 18 13 19 12 20 11 21 10 22
REMARK SMILES IDX 9 23 8 24 17 25 18 26 19 27 20 28 21 29 22 30 23 31 27 32
REMARK SMILES IDX 28 33 29 34 32 35 33 36 34 37 35 38 36 39 37 40 46 41 47 42
REMARK SMILES IDX 3 44 2 45 1 46 24 47 25 48 26 49 30 50 31 51
REMARK H PARENT 47 43 31 52
ROOT
ATOM      1  C   UNL     1      -4.128  -3.234  -0.595  1.00  0.00     0.006 C 
ATOM      2  C   UNL     1      -3.792  -1.931  -0.474  1.00  0.00    -0.010 C 
ATOM      3  C   UNL     1      -4.272  -0.937  -1.488  1.00  0.00     0.297 C 
ATOM      4  N   UNL     1      -4.899   0.322  -0.860  1.00  0.00    -0.314 N 
ATOM      5  C   UNL     1      -4.730   1.505  -1.816  1.00  0.00     0.266 C 
ATOM      6  C   UNL     1      -3.262   1.896  -1.672  1.00  0.00     0.082 C 
ATOM      7  C   UNL     1      -2.874   1.537  -0.222  1.00  0.00     0.079 C 
ATOM      8  C   UNL     1      -4.109   0.832   0.371  1.00  0.00     0.200 C 
ATOM      9  C   UNL     1      -3.806  -0.270   1.359  1.00  0.00     0.079 C 
ATOM     10  C   UNL     1      -2.976  -1.334   0.670  1.00  0.00     0.056 C 
ATOM     11  C   UNL     1      -1.638  -0.780   0.183  1.00  0.00    -0.022 C 
ATOM     12  C   UNL     1      -0.652  -1.688   0.032  1.00  0.00     0.089 C 
ATOM     13  N   UNL     1       0.666  -1.615  -0.359  1.00  0.00    -0.339 N 
ATOM     14  C   UNL     1       1.504  -0.408  -0.539  1.00  0.00     0.132 C 
ATOM     15  C   UNL     1       1.588   0.357   0.783  1.00  0.00    -0.022 C 
ATOM     16  C   UNL     1       0.591   1.093   1.311  1.00  0.00     0.089 C 
ATOM     17  N   UNL     1      -0.699   1.383   0.927  1.00  0.00    -0.339 N 
ATOM     18  C   UNL     1      -1.523   0.719  -0.114  1.00  0.00     0.132 C 
ATOM     19  C   UNL     1      -1.350   2.601   1.256  1.00  0.00     0.045 A 
ATOM     20  C   UNL     1      -0.916   3.603   2.116  1.00  0.00     0.026 A 
ATOM     21  C   UNL     1      -1.693   4.751   2.301  1.00  0.00     0.002 A 
ATOM     22  C   UNL     1      -2.898   4.912   1.613  1.00  0.00     0.000 A 
ATOM     23  C   UNL     1      -3.347   3.905   0.760  1.00  0.00     0.007 A 
ATOM     24  C   UNL     1      -2.564   2.762   0.597  1.00  0.00    -0.009 A 
ATOM     25  C   UNL     1       2.886   0.307   1.592  1.00  0.00     0.056 C 
ATOM     26  C   UNL     1       3.706  -0.920   1.256  1.00  0.00     0.079 C 
ATOM     27  C   UNL     1       4.069  -0.880  -0.215  1.00  0.00     0.200 C 
ATOM     28  C   UNL     1       2.870  -0.873  -1.188  1.00  0.00     0.079 C 
ATOM     29  C   UNL     1       3.318  -0.012  -2.397  1.00  0.00     0.082 C 
ATOM     30  C   UNL     1       4.766   0.370  -2.122  1.00  0.00     0.266 C 
ATOM     31  N   UNL     1       4.873   0.389  -0.597  1.00  0.00    -0.314 N 
ATOM     32  C   UNL     1       4.232   1.682  -0.055  1.00  0.00     0.297 C 
ATOM     33  C   UNL     1       3.761   1.530   1.355  1.00  0.00    -0.010 C 
ATOM     34  C   UNL     1       4.191   2.374   2.313  1.00  0.00     0.006 C 
ATOM     35  C   UNL     1       2.552  -2.289  -1.577  1.00  0.00    -0.009 A 
ATOM     36  C   UNL     1       3.330  -3.176  -2.322  1.00  0.00     0.007 A 
ATOM     37  C   UNL     1       2.870  -4.480  -2.510  1.00  0.00     0.000 A 
ATOM     38  C   UNL     1       1.646  -4.880  -1.966  1.00  0.00     0.002 A 
ATOM     39  C   UNL     1       0.868  -3.977  -1.240  1.00  0.00     0.026 A 
ATOM     40  C   UNL     1       1.323  -2.671  -1.041  1.00  0.00     0.045 A 
ENDROOT
BRANCH   1  41
ATOM     41  C   UNL     1      -3.753  -4.354   0.314  1.00  0.00     0.184 C 
BRANCH  41  42
ATOM     42  O   UNL     1      -4.667  -4.342   1.391  1.00  0.00    -0.392 OA
ATOM     43  H   UNL     1      -4.753  -5.264   1.692  1.00  0.00     0.210 HD
ENDBRANCH  41  42
ENDBRANCH   1  41
BRANCH   4  44
ATOM     44  C   UNL     1      -6.384   0.023  -0.580  1.00  0.00     0.292 C 
BRANCH  44  45
ATOM     45  C   UNL     1      -7.147   1.125   0.095  1.00  0.00     0.025 C 
ATOM     46  C   UNL     1      -8.048   1.914  -0.506  1.00  0.00     0.010 C 
ENDBRANCH  44  45
ENDBRANCH   4  44
BRANCH  31  47
ATOM     47  C   UNL     1       6.336   0.363  -0.126  1.00  0.00     0.292 C 
BRANCH  47  48
ATOM     48  C   UNL     1       7.134  -0.856  -0.463  1.00  0.00     0.025 C 
ATOM     49  C   UNL     1       8.080  -0.926  -1.408  1.00  0.00     0.010 C 
ENDBRANCH  47  48
ENDBRANCH  31  47
BRANCH  34  50
ATOM     50  C   UNL     1       3.925   2.284   3.777  1.00  0.00     0.184 C 
BRANCH  50  51
ATOM     51  O   UNL     1       4.939   1.458   4.308  1.00  0.00    -0.392 OA
ATOM     52  H   UNL     1       4.890   1.516   5.279  1.00  0.00     0.210 HD
ENDBRANCH  50  51
ENDBRANCH  34  50
TORSDOF 8
