REMARK SMILES C=CCc1cc(OC)c(O)c(C(=O)NCCO)c1
REMARK SMILES IDX 12 1 13 2 14 3 11 5 6 6 5 7 9 8 4 9 18 10 7 11 8 12 10 13
REMARK SMILES IDX 3 15 2 16 1 17 15 18 16 19 17 20
REMARK H PARENT 14 4 10 14 17 21
ROOT
ATOM      1  C   UNL     1      -2.310  -0.096   0.359  1.00  0.00     0.255 C 
ATOM      2  O   UNL     1      -3.255   0.639   0.613  1.00  0.00    -0.269 OA
ATOM      3  N   UNL     1      -2.415  -1.454   0.130  1.00  0.00    -0.350 N 
ATOM      4  H   UNL     1      -1.625  -1.911  -0.310  1.00  0.00     0.163 HD
ENDROOT
BRANCH   1   5
ATOM      5  C   UNL     1      -0.929   0.424   0.315  1.00  0.00     0.085 A 
ATOM      6  C   UNL     1       0.779   1.837  -0.670  1.00  0.00     0.161 A 
ATOM      7  C   UNL     1       1.689   1.396   0.294  1.00  0.00     0.054 A 
ATOM      8  C   UNL     1      -0.533   1.344  -0.653  1.00  0.00     0.170 A 
ATOM      9  C   UNL     1       1.300   0.467   1.278  1.00  0.00    -0.039 A 
ATOM     10  C   UNL     1      -0.014  -0.021   1.277  1.00  0.00     0.022 A 
BRANCH   6  11
ATOM     11  O   UNL     1       1.045   2.732  -1.677  1.00  0.00    -0.493 OA
ATOM     12  C   UNL     1       2.364   3.262  -1.732  1.00  0.00     0.278 C 
ENDBRANCH   6  11
BRANCH   8  13
ATOM     13  O   UNL     1      -1.407   1.758  -1.624  1.00  0.00    -0.504 OA
ATOM     14  H   UNL     1      -0.919   2.418  -2.153  1.00  0.00     0.293 HD
ENDBRANCH   8  13
BRANCH   9  15
ATOM     15  C   UNL     1       2.295  -0.011   2.310  1.00  0.00     0.062 C 
BRANCH  15  16
ATOM     16  C   UNL     1       3.215  -1.066   1.763  1.00  0.00    -0.030 C 
ATOM     17  C   UNL     1       4.548  -0.948   1.700  1.00  0.00     0.004 C 
ENDBRANCH  15  16
ENDBRANCH   9  15
ENDBRANCH   1   5
BRANCH   3  18
ATOM     18  C   UNL     1      -3.717  -2.063  -0.076  1.00  0.00     0.144 C 
BRANCH  18  19
ATOM     19  C   UNL     1      -4.130  -2.004  -1.547  1.00  0.00     0.177 C 
BRANCH  19  20
ATOM     20  O   UNL     1      -3.279  -2.845  -2.331  1.00  0.00    -0.395 OA
ATOM     21  H   UNL     1      -3.479  -3.765  -2.087  1.00  0.00     0.210 HD
ENDBRANCH  19  20
ENDBRANCH  18  19
ENDBRANCH   3  18
TORSDOF 8
