REMARK SMILES NC(=O)NC1NC(=O)NC1=O
REMARK SMILES IDX 5 1 6 2 7 3 8 4 9 5 10 6 11 7 4 10 1 11 2 12 3 13
REMARK H PARENT 6 8 9 9 1 14 1 15 4 16
ROOT
ATOM      1  C   UNL     1      -0.367  -0.036   0.785  1.00  0.00     0.273 C 
ATOM      2  N   UNL     1      -1.130   1.166   0.910  1.00  0.00    -0.309 N 
ATOM      3  C   UNL     1      -2.322   1.090   0.235  1.00  0.00     0.323 C 
ATOM      4  O   UNL     1      -3.201   1.932   0.275  1.00  0.00    -0.248 OA
ATOM      5  N   UNL     1      -2.350  -0.057  -0.481  1.00  0.00    -0.275 N 
ATOM      6  C   UNL     1      -1.202  -0.767  -0.292  1.00  0.00     0.271 C 
ATOM      7  O   UNL     1      -0.903  -1.782  -0.902  1.00  0.00    -0.270 OA
ATOM      8  H   UNL     1      -0.974   1.871   1.616  1.00  0.00     0.168 HD
ATOM      9  H   UNL     1      -3.084  -0.307  -1.120  1.00  0.00     0.174 HD
ENDROOT
BRANCH   1  10
ATOM     10  N   UNL     1       0.968   0.247   0.366  1.00  0.00    -0.310 N 
ATOM     11  N   UNL     1       3.131  -0.346   0.051  1.00  0.00    -0.352 N 
ATOM     12  C   UNL     1       1.959  -0.631   0.668  1.00  0.00     0.314 C 
ATOM     13  O   UNL     1       1.858  -1.559   1.456  1.00  0.00    -0.249 OA
ATOM     14  H   UNL     1       3.101  -0.005  -0.898  1.00  0.00     0.161 HD
ATOM     15  H   UNL     1       3.842  -1.049   0.215  1.00  0.00     0.161 HD
ATOM     16  H   UNL     1       1.087   0.825  -0.449  1.00  0.00     0.168 HD
ENDBRANCH   1  10
TORSDOF 1
