REMARK SMILES Cc1nc(NC(=O)N2CCC[C@H]2C(N)=O)sc1-c1ccnc(C(C)(C)C(F)(F)F)c1
REMARK SMILES IDX 1 1 2 2 17 3 16 4 4 5 3 6 18 7 30 8 19 9 22 10 20 11 21 12
REMARK SMILES IDX 23 13 24 14 25 15 26 16 27 17 28 18 29 19 5 20 6 21 7 22
REMARK SMILES IDX 8 24 9 25 12 26 10 27 11 28 13 29 14 30 15 31
REMARK H PARENT 5 23 14 32 14 33
ROOT
ATOM      1  C   UNL     1       1.011   2.006  -2.519  1.00  0.00     0.068 C 
ATOM      2  C   UNL     1       0.341   1.014  -1.639  1.00  0.00     0.058 A 
ATOM      3  C   UNL     1       0.914  -0.109  -1.066  1.00  0.00     0.059 A 
ATOM      4  S   UNL     1      -0.266  -0.953  -0.152  1.00  0.00    -0.096 S 
ATOM      5  C   UNL     1      -1.411   0.250  -0.529  1.00  0.00     0.191 A 
ATOM      6  N   UNL     1      -1.003   1.192  -1.347  1.00  0.00    -0.225 NA
ENDROOT
BRANCH   3   7
ATOM      7  C   UNL     1       2.284  -0.605  -1.137  1.00  0.00    -0.003 A 
ATOM      8  C   UNL     1       3.304   0.054  -0.441  1.00  0.00     0.034 A 
ATOM      9  C   UNL     1       2.597  -1.720  -1.904  1.00  0.00     0.030 A 
ATOM     10  C   UNL     1       4.616  -0.416  -0.532  1.00  0.00     0.056 A 
ATOM     11  C   UNL     1       3.916  -2.122  -1.952  1.00  0.00     0.112 A 
ATOM     12  N   UNL     1       4.917  -1.494  -1.298  1.00  0.00    -0.260 NA
BRANCH  10  13
ATOM     13  C   UNL     1       5.767   0.261   0.218  1.00  0.00     0.102 C 
ATOM     14  C   UNL     1       7.133  -0.340  -0.183  1.00  0.00     0.027 C 
ATOM     15  C   UNL     1       5.812   1.765  -0.114  1.00  0.00     0.027 C 
BRANCH  13  16
ATOM     16  C   UNL     1       5.582   0.065   1.725  1.00  0.00     0.399 C 
ATOM     17  F   UNL     1       6.598   0.643   2.418  1.00  0.00    -0.170 F 
ATOM     18  F   UNL     1       4.439   0.633   2.174  1.00  0.00    -0.170 F 
ATOM     19  F   UNL     1       5.556  -1.235   2.079  1.00  0.00    -0.170 F 
ENDBRANCH  13  16
ENDBRANCH  10  13
ENDBRANCH   3   7
BRANCH   5  20
ATOM     20  N   UNL     1      -2.710   0.177  -0.096  1.00  0.00    -0.283 N 
ATOM     21  C   UNL     1      -3.124  -0.444   1.053  1.00  0.00     0.324 C 
ATOM     22  O   UNL     1      -2.392  -0.887   1.934  1.00  0.00    -0.248 OA
ATOM     23  H   UNL     1      -3.262   0.984  -0.370  1.00  0.00     0.174 HD
BRANCH  21  24
ATOM     24  N   UNL     1      -4.501  -0.526   1.175  1.00  0.00    -0.312 N 
ATOM     25  C   UNL     1      -5.090  -1.060   2.388  1.00  0.00     0.122 C 
ATOM     26  C   UNL     1      -5.474  -0.497   0.073  1.00  0.00     0.176 C 
ATOM     27  C   UNL     1      -6.584  -0.922   2.166  1.00  0.00     0.024 C 
ATOM     28  C   UNL     1      -6.722  -1.166   0.667  1.00  0.00     0.037 C 
BRANCH  26  29
ATOM     29  C   UNL     1      -5.738   0.933  -0.442  1.00  0.00     0.240 C 
ATOM     30  N   UNL     1      -6.785   1.094  -1.305  1.00  0.00    -0.368 N 
ATOM     31  O   UNL     1      -4.998   1.885  -0.202  1.00  0.00    -0.273 OA
ATOM     32  H   UNL     1      -6.930   2.020  -1.690  1.00  0.00     0.159 HD
ATOM     33  H   UNL     1      -7.361   0.338  -1.643  1.00  0.00     0.159 HD
ENDBRANCH  26  29
ENDBRANCH  21  24
ENDBRANCH   5  20
TORSDOF 6
