REMARK SMILES CCC(=O)O[C@]1(c2ccccc2)CCN(C)C[C@@H]1C
REMARK SMILES IDX 3 1 4 2 2 3 1 4 5 5 6 6 13 7 18 8 14 9 17 10 15 11 19 12
REMARK SMILES IDX 16 13 7 14 8 15 12 16 9 17 11 18 10 19
REMARK H PARENT
ROOT
ATOM      1  C   UNL     1       2.219  -0.948  -0.156  1.00  0.00     0.306 C 
ATOM      2  O   UNL     1       1.938  -2.030   0.332  1.00  0.00    -0.252 OA
ENDROOT
BRANCH   1   3
ATOM      3  C   UNL     1       3.596  -0.555  -0.642  1.00  0.00     0.119 C 
ATOM      4  C   UNL     1       4.610  -1.669  -0.451  1.00  0.00     0.016 C 
ENDBRANCH   1   3
BRANCH   1   5
ATOM      5  O   UNL     1       1.376   0.091  -0.364  1.00  0.00    -0.454 OA
BRANCH   5   6
ATOM      6  C   UNL     1      -0.046   0.135  -0.012  1.00  0.00     0.142 C 
ATOM      7  C   UNL     1      -0.385  -0.629   1.295  1.00  0.00     0.070 C 
ATOM      8  C   UNL     1      -0.923  -0.456  -1.169  1.00  0.00     0.049 C 
ATOM      9  C   UNL     1      -1.884  -0.615   1.617  1.00  0.00     0.088 C 
ATOM     10  C   UNL     1      -2.410  -0.487  -0.754  1.00  0.00     0.092 C 
ATOM     11  N   UNL     1      -2.729  -1.110   0.531  1.00  0.00    -0.306 NA
ATOM     12  C   UNL     1      -0.443  -1.812  -1.703  1.00  0.00     0.013 C 
ATOM     13  C   UNL     1      -2.821  -2.563   0.496  1.00  0.00     0.105 C 
BRANCH   6  14
ATOM     14  C   UNL     1      -0.227   1.677   0.104  1.00  0.00    -0.004 A 
ATOM     15  C   UNL     1      -0.396   2.344   1.331  1.00  0.00     0.008 A 
ATOM     16  C   UNL     1      -0.129   2.490  -1.047  1.00  0.00     0.008 A 
ATOM     17  C   UNL     1      -0.530   3.736   1.398  1.00  0.00     0.000 A 
ATOM     18  C   UNL     1      -0.261   3.880  -0.983  1.00  0.00     0.000 A 
ATOM     19  C   UNL     1      -0.472   4.503   0.241  1.00  0.00     0.000 A 
ENDBRANCH   6  14
ENDBRANCH   5   6
ENDBRANCH   1   5
TORSDOF 4
