REMARK SMILES CN(C)c1nc(N(C)C)nc(N(C)C)n1
REMARK SMILES IDX 4 1 15 2 11 3 10 4 6 5 5 6 2 7 1 8 3 9 12 10 13 11 14 12
REMARK SMILES IDX 7 13 8 14 9 15
REMARK H PARENT
ROOT
ATOM      1  C   UNL     1      -0.169   1.290   0.167  1.00  0.00     0.231 A 
ATOM      2  N   UNL     1       0.920   0.874  -0.467  1.00  0.00    -0.177 NA
ATOM      3  C   UNL     1       1.138  -0.434  -0.513  1.00  0.00     0.231 A 
ATOM      4  N   UNL     1       0.308  -1.316   0.028  1.00  0.00    -0.177 NA
ATOM      5  C   UNL     1      -0.765  -0.844   0.650  1.00  0.00     0.231 A 
ATOM      6  N   UNL     1      -1.026   0.454   0.740  1.00  0.00    -0.177 NA
ENDROOT
BRANCH   1   7
ATOM      7  N   UNL     1      -0.409   2.668   0.256  1.00  0.00    -0.347 N 
ATOM      8  C   UNL     1       0.256   3.459  -0.767  1.00  0.00     0.146 C 
ATOM      9  C   UNL     1      -1.785   3.022   0.567  1.00  0.00     0.146 C 
ENDBRANCH   1   7
BRANCH   3  10
ATOM     10  N   UNL     1       2.273  -0.904  -1.191  1.00  0.00    -0.347 N 
ATOM     11  C   UNL     1       3.333   0.083  -1.331  1.00  0.00     0.146 C 
ATOM     12  C   UNL     1       2.682  -2.246  -0.804  1.00  0.00     0.146 C 
ENDBRANCH   3  10
BRANCH   5  13
ATOM     13  N   UNL     1      -1.644  -1.752   1.256  1.00  0.00    -0.347 N 
ATOM     14  C   UNL     1      -2.970  -1.220   1.527  1.00  0.00     0.146 C 
ATOM     15  C   UNL     1      -1.577  -3.102   0.718  1.00  0.00     0.146 C 
ENDBRANCH   5  13
TORSDOF 3
