REMARK SMILES Nc1ncnc(Nc2ccccc2)n1
REMARK SMILES IDX 2 1 14 2 6 3 5 4 4 5 3 6 1 7 7 10 8 12 9 13 13 14 10 15
REMARK SMILES IDX 12 16 11 17
REMARK H PARENT 1 8 1 9 7 11
ROOT
ATOM      1  C   UNL     1      -3.030   0.307   0.150  1.00  0.00     0.224 A 
ATOM      2  N   UNL     1      -1.710   0.221   0.123  1.00  0.00    -0.177 NA
ATOM      3  C   UNL     1      -1.204  -0.938  -0.290  1.00  0.00     0.231 A 
ATOM      4  N   UNL     1      -1.954  -1.980  -0.645  1.00  0.00    -0.201 NA
ATOM      5  C   UNL     1      -3.265  -1.781  -0.566  1.00  0.00     0.230 A 
ATOM      6  N   UNL     1      -3.864  -0.668  -0.168  1.00  0.00    -0.201 NA
ENDROOT
BRANCH   1   7
ATOM      7  N   UNL     1      -3.581   1.495   0.586  1.00  0.00    -0.368 N 
ATOM      8  H   UNL     1      -2.924   1.989   1.175  1.00  0.00     0.159 HD
ATOM      9  H   UNL     1      -4.508   1.337   0.956  1.00  0.00     0.159 HD
ENDBRANCH   1   7
BRANCH   3  10
ATOM     10  N   UNL     1       0.170  -1.158  -0.362  1.00  0.00    -0.324 N 
ATOM     11  H   UNL     1       0.337  -2.096  -0.695  1.00  0.00     0.170 HD
BRANCH  10  12
ATOM     12  C   UNL     1       1.297  -0.348  -0.183  1.00  0.00     0.041 A 
ATOM     13  C   UNL     1       1.239   1.020   0.104  1.00  0.00     0.026 A 
ATOM     14  C   UNL     1       2.567  -0.944  -0.254  1.00  0.00     0.026 A 
ATOM     15  C   UNL     1       2.405   1.770   0.297  1.00  0.00     0.002 A 
ATOM     16  C   UNL     1       3.735  -0.199  -0.061  1.00  0.00     0.002 A 
ATOM     17  C   UNL     1       3.653   1.161   0.214  1.00  0.00     0.000 A 
ENDBRANCH  10  12
ENDBRANCH   3  10
TORSDOF 3
