REMARK SMILES Nc1ccncc1N
REMARK SMILES IDX 2 1 3 2 4 3 5 4 6 5 7 6 1 7 8 10
REMARK H PARENT 1 8 1 9 8 11 8 12
ROOT
ATOM      1  C   UNL     1      -0.652  -0.238   0.078  1.00  0.00     0.058 A 
ATOM      2  C   UNL     1      -0.258  -1.567  -0.103  1.00  0.00     0.048 A 
ATOM      3  C   UNL     1       1.070  -1.846  -0.384  1.00  0.00     0.113 A 
ATOM      4  N   UNL     1       2.034  -0.909  -0.450  1.00  0.00    -0.262 NA
ATOM      5  C   UNL     1       1.643   0.364  -0.207  1.00  0.00     0.138 A 
ATOM      6  C   UNL     1       0.327   0.773   0.027  1.00  0.00     0.073 A 
ENDROOT
BRANCH   1   7
ATOM      7  N   UNL     1      -1.967   0.024   0.509  1.00  0.00    -0.397 N 
ATOM      8  H   UNL     1      -2.647  -0.667   0.211  1.00  0.00     0.156 HD
ATOM      9  H   UNL     1      -2.278   0.973   0.353  1.00  0.00     0.156 HD
ENDBRANCH   1   7
BRANCH   6  10
ATOM     10  N   UNL     1       0.048   2.099   0.406  1.00  0.00    -0.396 N 
ATOM     11  H   UNL     1       0.707   2.780   0.044  1.00  0.00     0.156 HD
ATOM     12  H   UNL     1      -0.914   2.376   0.272  1.00  0.00     0.156 HD
ENDBRANCH   6  10
TORSDOF 2
