REMARK SMILES NCC[C@H](O)C(=O)N[C@@H]1C[C@H](N)[C@@H](O[C@H]2O[C@H](CN)[C@@H](O)[C@H](O)[C@H]2O)[C@H](O)[C@H]1O[C@H]1O[C@H](CO)[C@@H](O)[C@H](N)[C@H]1O
REMARK SMILES IDX 9 1 10 2 11 3 13 4 26 5 28 6 8 7 6 8 7 9 4 11 3 12 2 13 1 14
REMARK SMILES IDX 5 17 29 19 30 20 31 21 39 22 32 23 37 24 35 25 40 26 33 28
REMARK SMILES IDX 34 29 38 31 36 34 12 36 27 39 14 41 15 42 16 43 24 44 17 45
REMARK SMILES IDX 22 46 20 47 25 48 18 50 19 51 23 54 21 56
REMARK H PARENT 8 10 1 15 1 16 5 18 40 27 34 30 38 32 38 33 36 35 12 37 12 38
REMARK H PARENT 27 40 25 49 19 52 19 53 23 55 21 57
ROOT
ATOM      1  C   UNL     1      -0.265   1.837  -0.236  1.00  0.00     0.115 C 
ATOM      2  C   UNL     1       0.221   2.902  -1.225  1.00  0.00     0.049 C 
ATOM      3  C   UNL     1       1.119   2.327  -2.339  1.00  0.00     0.085 C 
ATOM      4  C   UNL     1       1.135   0.774  -2.378  1.00  0.00     0.169 C 
ATOM      5  C   UNL     1      -0.281   0.184  -2.225  1.00  0.00     0.176 C 
ATOM      6  C   UNL     1      -1.054   0.759  -1.014  1.00  0.00     0.175 C 
ENDROOT
BRANCH   1   7
ATOM      7  N   UNL     1      -1.110   2.420   0.815  1.00  0.00    -0.348 N 
ATOM      8  C   UNL     1      -0.559   3.169   1.831  1.00  0.00     0.249 C 
ATOM      9  O   UNL     1       0.627   3.493   1.882  1.00  0.00    -0.272 OA
ATOM     10  H   UNL     1      -1.909   1.852   1.090  1.00  0.00     0.163 HD
BRANCH   8  11
ATOM     11  C   UNL     1      -1.536   3.584   2.951  1.00  0.00     0.204 C 
BRANCH  11  12
ATOM     12  C   UNL     1      -2.546   4.603   2.416  1.00  0.00     0.057 C 
BRANCH  12  13
ATOM     13  C   UNL     1      -3.658   4.952   3.408  1.00  0.00     0.081 C 
BRANCH  13  14
ATOM     14  N   UNL     1      -3.180   5.683   4.572  1.00  0.00    -0.330 NA
ATOM     15  H   UNL     1      -2.431   5.131   5.004  1.00  0.00     0.118 HD
ATOM     16  H   UNL     1      -2.699   6.531   4.266  1.00  0.00     0.118 HD
ENDBRANCH  13  14
ENDBRANCH  12  13
ENDBRANCH  11  12
BRANCH  11  17
ATOM     17  O   UNL     1      -0.812   4.142   4.055  1.00  0.00    -0.383 OA
ATOM     18  H   UNL     1       0.134   4.108   3.794  1.00  0.00     0.211 HD
ENDBRANCH  11  17
ENDBRANCH   8  11
ENDBRANCH   1   7
BRANCH   6  19
ATOM     19  O   UNL     1      -1.362  -0.292  -0.080  1.00  0.00    -0.342 OA
BRANCH  19  20
ATOM     20  C   UNL     1      -2.660  -0.865  -0.282  1.00  0.00     0.281 C 
ATOM     21  O   UNL     1      -2.711  -1.574  -1.518  1.00  0.00    -0.341 OA
ATOM     22  C   UNL     1      -3.008  -1.733   0.938  1.00  0.00     0.190 C 
ATOM     23  C   UNL     1      -2.477  -2.993  -1.456  1.00  0.00     0.177 C 
ATOM     24  C   UNL     1      -1.959  -2.846   1.085  1.00  0.00     0.116 C 
ATOM     25  C   UNL     1      -1.585  -3.467  -0.283  1.00  0.00     0.165 C 
BRANCH  22  26
ATOM     26  O   UNL     1      -3.065  -0.957   2.146  1.00  0.00    -0.386 OA
ATOM     27  H   UNL     1      -3.061  -1.624   2.866  1.00  0.00     0.211 HD
ENDBRANCH  22  26
BRANCH  23  28
ATOM     28  C   UNL     1      -3.829  -3.727  -1.539  1.00  0.00     0.191 C 
BRANCH  28  29
ATOM     29  O   UNL     1      -3.675  -5.140  -1.556  1.00  0.00    -0.394 OA
ATOM     30  H   UNL     1      -3.285  -5.377  -2.413  1.00  0.00     0.210 HD
ENDBRANCH  28  29
ENDBRANCH  23  28
BRANCH  24  31
ATOM     31  N   UNL     1      -2.465  -3.842   2.064  1.00  0.00    -0.323 NA
ATOM     32  H   UNL     1      -3.094  -4.492   1.587  1.00  0.00     0.119 HD
ATOM     33  H   UNL     1      -1.676  -4.430   2.352  1.00  0.00     0.119 HD
ENDBRANCH  24  31
BRANCH  25  34
ATOM     34  O   UNL     1      -0.216  -3.195  -0.626  1.00  0.00    -0.389 OA
ATOM     35  H   UNL     1       0.152  -2.464  -0.085  1.00  0.00     0.211 HD
ENDBRANCH  25  34
ENDBRANCH  19  20
ENDBRANCH   6  19
BRANCH   3  36
ATOM     36  N   UNL     1       0.733   2.879  -3.644  1.00  0.00    -0.325 NA
ATOM     37  H   UNL     1      -0.098   2.379  -3.979  1.00  0.00     0.119 HD
ATOM     38  H   UNL     1       0.462   3.857  -3.560  1.00  0.00     0.119 HD
ENDBRANCH   3  36
BRANCH   5  39
ATOM     39  O   UNL     1      -1.039   0.429  -3.419  1.00  0.00    -0.388 OA
ATOM     40  H   UNL     1      -1.732  -0.266  -3.449  1.00  0.00     0.211 HD
ENDBRANCH   5  39
BRANCH   4  41
ATOM     41  O   UNL     1       1.922   0.255  -1.298  1.00  0.00    -0.342 OA
BRANCH  41  42
ATOM     42  C   UNL     1       3.318   0.137  -1.558  1.00  0.00     0.282 C 
ATOM     43  O   UNL     1       3.994   0.338  -0.315  1.00  0.00    -0.342 OA
ATOM     44  C   UNL     1       3.703  -1.221  -2.172  1.00  0.00     0.202 C 
ATOM     45  C   UNL     1       4.037  -0.790   0.589  1.00  0.00     0.166 C 
ATOM     46  C   UNL     1       3.233  -2.376  -1.269  1.00  0.00     0.179 C 
ATOM     47  C   UNL     1       3.105  -1.971   0.211  1.00  0.00     0.176 C 
BRANCH  44  48
ATOM     48  O   UNL     1       3.172  -1.403  -3.494  1.00  0.00    -0.385 OA
ATOM     49  H   UNL     1       3.647  -0.804  -4.093  1.00  0.00     0.211 HD
ENDBRANCH  44  48
BRANCH  45  50
ATOM     50  C   UNL     1       5.514  -1.206   0.748  1.00  0.00     0.112 C 
BRANCH  50  51
ATOM     51  N   UNL     1       5.745  -2.107   1.880  1.00  0.00    -0.328 NA
ATOM     52  H   UNL     1       6.728  -2.374   1.894  1.00  0.00     0.118 HD
ATOM     53  H   UNL     1       5.603  -1.587   2.749  1.00  0.00     0.118 HD
ENDBRANCH  50  51
ENDBRANCH  45  50
BRANCH  46  54
ATOM     54  O   UNL     1       4.175  -3.455  -1.401  1.00  0.00    -0.387 OA
ATOM     55  H   UNL     1       3.766  -4.234  -0.978  1.00  0.00     0.211 HD
ENDBRANCH  46  54
BRANCH  47  56
ATOM     56  O   UNL     1       1.731  -1.619   0.474  1.00  0.00    -0.388 OA
ATOM     57  H   UNL     1       1.678  -0.641   0.373  1.00  0.00     0.211 HD
ENDBRANCH  47  56
ENDBRANCH  41  42
ENDBRANCH   4  41
TORSDOF 22
