REMARK SMILES NCc1ccc(C(=O)O)cc1
REMARK SMILES IDX 3 1 4 2 5 3 6 4 10 5 11 6 2 7 1 8 7 11 8 12 9 13
REMARK H PARENT 1 9 1 10 9 14
ROOT
ATOM      1  C   UNL     1       1.046   0.569  -0.113  1.00  0.00    -0.034 A 
ATOM      2  C   UNL     1       0.701   0.023   1.131  1.00  0.00     0.006 A 
ATOM      3  C   UNL     1      -0.596  -0.439   1.367  1.00  0.00     0.016 A 
ATOM      4  C   UNL     1      -1.564  -0.366   0.359  1.00  0.00     0.059 A 
ATOM      5  C   UNL     1      -1.224   0.170  -0.889  1.00  0.00     0.016 A 
ATOM      6  C   UNL     1       0.075   0.631  -1.123  1.00  0.00     0.006 A 
ENDROOT
BRANCH   1   7
ATOM      7  C   UNL     1       2.453   1.044  -0.377  1.00  0.00     0.113 C 
BRANCH   7   8
ATOM      8  N   UNL     1       3.285  -0.034  -0.897  1.00  0.00    -0.326 NA
ATOM      9  H   UNL     1       2.854  -0.402  -1.744  1.00  0.00     0.119 HD
ATOM     10  H   UNL     1       3.278  -0.806  -0.231  1.00  0.00     0.119 HD
ENDBRANCH   7   8
ENDBRANCH   1   7
BRANCH   4  11
ATOM     11  C   UNL     1      -2.927  -0.869   0.655  1.00  0.00     0.335 C 
ATOM     12  O   UNL     1      -3.296  -1.349   1.711  1.00  0.00    -0.246 OA
BRANCH  11  13
ATOM     13  O   UNL     1      -3.768  -0.746  -0.387  1.00  0.00    -0.478 OA
ATOM     14  H   UNL     1      -4.613  -1.111  -0.049  1.00  0.00     0.297 HD
ENDBRANCH  11  13
ENDBRANCH   4  11
TORSDOF 4
