REMARK SMILES CC(C)CCOC(CN1CCCC1)c1ccccc1
REMARK SMILES IDX 5 1 4 2 2 3 1 4 3 5 6 6 7 7 8 8 9 9 10 10 13 11 11 12 12 13
REMARK SMILES IDX 14 14 15 15 19 16 16 17 18 18 17 19
REMARK H PARENT
ROOT
ATOM      1  C   UNL     1       1.883  -0.380  -0.216  1.00  0.00     0.161 C 
ENDROOT
BRANCH   1   2
ATOM      2  C   UNL     1       2.476  -0.188   1.181  1.00  0.00     0.031 C 
BRANCH   2   3
ATOM      3  C   UNL     1       3.297  -1.374   1.718  1.00  0.00    -0.015 C 
ATOM      4  C   UNL     1       4.516  -1.681   0.846  1.00  0.00     0.007 C 
ATOM      5  C   UNL     1       2.444  -2.630   1.905  1.00  0.00     0.007 C 
ENDBRANCH   2   3
ENDBRANCH   1   2
BRANCH   1   6
ATOM      6  O   UNL     1       1.191   0.800  -0.625  1.00  0.00    -0.372 OA
BRANCH   6   7
ATOM      7  C   UNL     1      -0.179   0.854  -0.180  1.00  0.00     0.162 C 
BRANCH   7   8
ATOM      8  C   UNL     1      -1.086   0.231  -1.283  1.00  0.00     0.121 C 
BRANCH   8   9
ATOM      9  N   UNL     1      -2.369  -0.319  -0.779  1.00  0.00    -0.300 NA
ATOM     10  C   UNL     1      -2.193  -1.612  -0.096  1.00  0.00     0.084 C 
ATOM     11  C   UNL     1      -3.289  -0.630  -1.886  1.00  0.00     0.084 C 
ATOM     12  C   UNL     1      -2.208  -2.675  -1.185  1.00  0.00     0.017 C 
ATOM     13  C   UNL     1      -2.915  -2.024  -2.367  1.00  0.00     0.017 C 
ENDBRANCH   8   9
ENDBRANCH   7   8
BRANCH   7  14
ATOM     14  C   UNL     1      -0.564   2.294   0.133  1.00  0.00    -0.018 A 
ATOM     15  C   UNL     1       0.192   3.384  -0.323  1.00  0.00     0.006 A 
ATOM     16  C   UNL     1      -1.716   2.554   0.895  1.00  0.00     0.006 A 
ATOM     17  C   UNL     1      -0.187   4.695  -0.025  1.00  0.00     0.000 A 
ATOM     18  C   UNL     1      -2.096   3.864   1.194  1.00  0.00     0.000 A 
ATOM     19  C   UNL     1      -1.332   4.934   0.734  1.00  0.00     0.000 A 
ENDBRANCH   7  14
ENDBRANCH   6   7
ENDBRANCH   1   6
TORSDOF 7
