REMARK SMILES CCC1(CCC(C)C)C(=O)NC(=O)NC1=O
REMARK SMILES IDX 4 1 3 2 9 3 15 4 10 5 11 6 14 7 16 8 12 9 13 10 2 13 1 14
REMARK SMILES IDX 5 15 6 16 7 17 8 18
REMARK H PARENT 11 11 14 12
ROOT
ATOM      1  C   UNL     1      -0.095   0.261  -0.430  1.00  0.00     0.027 C 
ENDROOT
BRANCH   1   2
ATOM      2  C   UNL     1      -1.391  -0.177   0.314  1.00  0.00     0.128 C 
ATOM      3  C   UNL     1      -2.564   0.011  -0.651  1.00  0.00     0.243 C 
ATOM      4  C   UNL     1      -1.290  -1.673   0.619  1.00  0.00     0.243 C 
ATOM      5  O   UNL     1      -3.386   0.920  -0.587  1.00  0.00    -0.273 OA
ATOM      6  N   UNL     1      -2.646  -0.916  -1.656  1.00  0.00    -0.277 N 
ATOM      7  N   UNL     1      -1.455  -2.503  -0.456  1.00  0.00    -0.277 N 
ATOM      8  O   UNL     1      -1.048  -2.141   1.728  1.00  0.00    -0.273 OA
ATOM      9  C   UNL     1      -2.324  -2.223  -1.464  1.00  0.00     0.328 C 
ATOM     10  O   UNL     1      -2.864  -3.116  -2.109  1.00  0.00    -0.248 OA
ATOM     11  H   UNL     1      -3.430  -0.782  -2.283  1.00  0.00     0.174 HD
ATOM     12  H   UNL     1      -1.391  -3.489  -0.238  1.00  0.00     0.174 HD
BRANCH   2  13
ATOM     13  C   UNL     1      -1.642   0.604   1.632  1.00  0.00     0.023 C 
ATOM     14  C   UNL     1      -1.490   2.121   1.556  1.00  0.00     0.005 C 
ENDBRANCH   2  13
ENDBRANCH   1   2
BRANCH   1  15
ATOM     15  C   UNL     1       1.200   0.094   0.382  1.00  0.00     0.004 C 
BRANCH  15  16
ATOM     16  C   UNL     1       2.438   0.688  -0.320  1.00  0.00    -0.017 C 
ATOM     17  C   UNL     1       2.760  -0.017  -1.638  1.00  0.00     0.007 C 
ATOM     18  C   UNL     1       3.649   0.611   0.614  1.00  0.00     0.007 C 
ENDBRANCH  15  16
ENDBRANCH   1  15
TORSDOF 4
