REMARK SMILES CCNC(=O)N1CCN(CCCC(c2ccc(F)cc2)c2ccc(F)cc2)CC1
REMARK SMILES IDX 11 1 10 2 9 3 3 4 4 5 5 6 6 7 7 8 29 9 8 10 28 11 2 13 1 14
REMARK SMILES IDX 12 15 13 16 14 17 15 18 20 19 16 20 19 21 17 22 18 23 21 24
REMARK SMILES IDX 22 25 27 26 23 27 26 28 24 29 25 30
REMARK H PARENT 3 12
ROOT
ATOM      1  C   UNL     1      -0.675  -0.833  -0.007  1.00  0.00     0.016 C 
ENDROOT
BRANCH   1   2
ATOM      2  C   UNL     1       0.533  -0.882   0.942  1.00  0.00     0.084 C 
BRANCH   2   3
ATOM      3  N   UNL     1       1.187   0.418   1.148  1.00  0.00    -0.300 NA
ATOM      4  N   UNL     1       5.947  -0.150  -0.694  1.00  0.00    -0.338 N 
ATOM      5  C   UNL     1       5.442  -0.257   0.579  1.00  0.00     0.317 C 
ATOM      6  O   UNL     1       6.160  -0.494   1.547  1.00  0.00    -0.249 OA
ATOM      7  N   UNL     1       4.074  -0.066   0.686  1.00  0.00    -0.322 N 
ATOM      8  C   UNL     1       3.443  -0.441   1.955  1.00  0.00     0.137 C 
ATOM      9  C   UNL     1       3.163   0.158  -0.442  1.00  0.00     0.137 C 
ATOM     10  C   UNL     1       2.164   0.360   2.258  1.00  0.00     0.106 C 
ATOM     11  C   UNL     1       1.887   0.927  -0.048  1.00  0.00     0.106 C 
ATOM     12  H   UNL     1       5.341  -0.508  -1.413  1.00  0.00     0.165 HD
BRANCH   4  13
ATOM     13  C   UNL     1       7.366  -0.327  -0.939  1.00  0.00     0.114 C 
ATOM     14  C   UNL     1       8.174   0.899  -0.550  1.00  0.00     0.027 C 
ENDBRANCH   4  13
ENDBRANCH   2   3
ENDBRANCH   1   2
BRANCH   1  15
ATOM     15  C   UNL     1      -1.757   0.158   0.453  1.00  0.00     0.014 C 
BRANCH  15  16
ATOM     16  C   UNL     1      -2.988   0.184  -0.488  1.00  0.00     0.049 C 
BRANCH  16  17
ATOM     17  C   UNL     1      -3.745  -1.143  -0.478  1.00  0.00    -0.040 A 
ATOM     18  C   UNL     1      -3.832  -1.909  -1.654  1.00  0.00     0.007 A 
ATOM     19  C   UNL     1      -4.369  -1.622   0.688  1.00  0.00     0.007 A 
ATOM     20  C   UNL     1      -4.519  -3.125  -1.660  1.00  0.00     0.039 A 
ATOM     21  C   UNL     1      -5.055  -2.837   0.679  1.00  0.00     0.039 A 
ATOM     22  C   UNL     1      -5.123  -3.577  -0.494  1.00  0.00     0.123 A 
ATOM     23  F   UNL     1      -5.781  -4.744  -0.502  1.00  0.00    -0.207 F 
ENDBRANCH  16  17
BRANCH  16  24
ATOM     24  C   UNL     1      -3.934   1.365  -0.256  1.00  0.00    -0.040 A 
ATOM     25  C   UNL     1      -4.742   1.807  -1.322  1.00  0.00     0.007 A 
ATOM     26  C   UNL     1      -4.054   2.014   0.985  1.00  0.00     0.007 A 
ATOM     27  C   UNL     1      -5.631   2.871  -1.156  1.00  0.00     0.039 A 
ATOM     28  C   UNL     1      -4.943   3.080   1.150  1.00  0.00     0.039 A 
ATOM     29  C   UNL     1      -5.721   3.498   0.079  1.00  0.00     0.123 A 
ATOM     30  F   UNL     1      -6.573   4.519   0.241  1.00  0.00    -0.207 F 
ENDBRANCH  16  24
ENDBRANCH  15  16
ENDBRANCH   1  15
TORSDOF 7
