REMARK SMILES Nc1cccc(-n2ccccc2=O)c1
REMARK SMILES IDX 2 1 3 2 4 3 5 4 6 5 14 6 1 7 7 10 8 11 12 12 9 13 11 14
REMARK SMILES IDX 13 15 10 16
REMARK H PARENT 1 8 1 9
ROOT
ATOM      1  C   UNL     1      -2.719   0.014   0.085  1.00  0.00     0.033 A 
ATOM      2  C   UNL     1      -2.957  -0.890  -0.948  1.00  0.00     0.025 A 
ATOM      3  C   UNL     1      -1.894  -1.436  -1.661  1.00  0.00     0.004 A 
ATOM      4  C   UNL     1      -0.579  -1.106  -1.319  1.00  0.00     0.027 A 
ATOM      5  C   UNL     1      -0.297  -0.242  -0.247  1.00  0.00     0.051 A 
ATOM      6  C   UNL     1      -1.394   0.288   0.456  1.00  0.00     0.052 A 
ENDROOT
BRANCH   1   7
ATOM      7  N   UNL     1      -3.782   0.472   0.873  1.00  0.00    -0.399 N 
ATOM      8  H   UNL     1      -4.669   0.531   0.385  1.00  0.00     0.156 HD
ATOM      9  H   UNL     1      -3.570   1.310   1.406  1.00  0.00     0.156 HD
ENDBRANCH   1   7
BRANCH   5  10
ATOM     10  N   UNL     1       1.074   0.088   0.099  1.00  0.00    -0.284 N 
ATOM     11  C   UNL     1       2.079   0.053  -0.873  1.00  0.00     0.095 C 
ATOM     12  C   UNL     1       1.405   0.442   1.431  1.00  0.00     0.255 C 
ATOM     13  C   UNL     1       3.358   0.342  -0.605  1.00  0.00     0.019 C 
ATOM     14  C   UNL     1       2.838   0.769   1.695  1.00  0.00     0.072 C 
ATOM     15  O   UNL     1       0.653   0.480   2.404  1.00  0.00    -0.269 OA
ATOM     16  C   UNL     1       3.752   0.708   0.722  1.00  0.00     0.007 C 
ENDBRANCH   5  10
TORSDOF 2
