REMARK SMILES C[C@@H]1[C@H](O)[C@@H](C)/C=C/C=C/C=C/C=C/C=C/C=C/C=C/[C@H](O[C@@H]2O[C@H](C)[C@@H](O)[C@H](N)[C@@H]2O)C[C@@H]2O[C@](O)(C[C@@H](O)C[C@@H](O)[C@H](O)CC[C@@H](O)C[C@@H](O)CC(=O)O[C@H]1C)C[C@H](O)[C@H]2C(=O)O
REMARK SMILES IDX 21 1 33 2 34 3 35 4 36 5 59 6 60 7 62 8 38 9 39 10 41 11
REMARK SMILES IDX 42 12 44 13 46 14 47 15 48 16 50 17 51 18 53 19 54 20 55 21
REMARK SMILES IDX 56 22 57 23 58 24 2 25 1 26 3 27 5 28 6 29 7 30 8 31 9 32
REMARK SMILES IDX 10 33 11 34 12 35 13 36 14 37 15 38 16 39 17 40 18 41 19 42
REMARK SMILES IDX 20 43 22 44 23 45 25 46 24 47 27 48 29 49 31 50 26 51 28 52
REMARK SMILES IDX 30 54 32 57 63 59 64 60 65 61 37 63 61 65 40 67 43 69 45 71
REMARK SMILES IDX 49 73 52 75 4 77
REMARK H PARENT 28 53 30 55 30 56 32 58 65 62 37 64 61 66 40 68 43 70 45 72
REMARK H PARENT 49 74 52 76 4 78
ROOT
ATOM      1  C   UNL     1       5.213   1.189  -0.117  1.00  0.00     0.147 C 
ATOM      2  C   UNL     1       4.747   0.837  -1.550  1.00  0.00     0.069 C 
ATOM      3  C   UNL     1       4.464  -0.664  -1.788  1.00  0.00     0.141 C 
ATOM      4  O   UNL     1       3.511  -1.087  -0.806  1.00  0.00    -0.346 OA
ATOM      5  C   UNL     1       2.936  -2.378  -1.040  1.00  0.00     0.170 C 
ATOM      6  C   UNL     1       3.972  -3.359  -1.628  1.00  0.00     0.098 C 
ATOM      7  C   UNL     1       5.410  -2.972  -1.299  1.00  0.00     0.136 C 
ATOM      8  C   UNL     1       5.720  -1.535  -1.726  1.00  0.00     0.157 C 
ATOM      9  C   UNL     1       2.363  -2.842   0.330  1.00  0.00     0.097 C 
ATOM     10  C   UNL     1       1.114  -3.738   0.347  1.00  0.00     0.122 C 
ATOM     11  C   UNL     1       1.181  -4.977  -0.546  1.00  0.00     0.066 C 
ATOM     12  C   UNL     1       0.139  -6.079  -0.272  1.00  0.00     0.145 C 
ATOM     13  C   UNL     1      -1.378  -5.723  -0.308  1.00  0.00     0.143 C 
ATOM     14  C   UNL     1      -2.030  -5.395   1.045  1.00  0.00     0.037 C 
ATOM     15  C   UNL     1      -3.560  -5.584   1.070  1.00  0.00     0.034 C 
ATOM     16  C   UNL     1      -4.392  -4.481   0.399  1.00  0.00     0.117 C 
ATOM     17  C   UNL     1      -5.874  -4.653   0.777  1.00  0.00     0.064 C 
ATOM     18  C   UNL     1      -6.744  -3.405   0.577  1.00  0.00     0.128 C 
ATOM     19  C   UNL     1      -6.795  -2.883  -0.859  1.00  0.00     0.154 C 
ATOM     20  C   UNL     1      -8.055  -2.086  -1.090  1.00  0.00     0.308 C 
ATOM     21  O   UNL     1      -8.804  -2.239  -2.043  1.00  0.00    -0.252 OA
ATOM     22  O   UNL     1      -8.218  -1.152  -0.109  1.00  0.00    -0.462 OA
ATOM     23  C   UNL     1      -9.383  -0.285  -0.177  1.00  0.00     0.178 C 
ATOM     24  C   UNL     1     -10.560  -1.095   0.379  1.00  0.00     0.053 C 
ATOM     25  C   UNL     1      -9.048   0.979   0.660  1.00  0.00     0.056 C 
ATOM     26  C   UNL     1     -10.314   1.721   1.127  1.00  0.00     0.014 C 
ATOM     27  C   UNL     1      -8.101   2.002  -0.047  1.00  0.00     0.127 C 
ATOM     28  C   UNL     1      -6.754   1.429  -0.568  1.00  0.00     0.038 C 
ATOM     29  C   UNL     1      -6.779   1.045  -2.055  1.00  0.00     0.015 C 
ATOM     30  C   UNL     1      -5.532   2.305  -0.371  1.00  0.00    -0.021 C 
ATOM     31  C   UNL     1      -5.435   3.618  -0.105  1.00  0.00    -0.004 C 
ATOM     32  C   UNL     1      -4.129   4.220   0.048  1.00  0.00    -0.000 C 
ATOM     33  C   UNL     1      -3.859   5.520   0.238  1.00  0.00    -0.000 C 
ATOM     34  C   UNL     1      -2.477   5.938   0.342  1.00  0.00    -0.000 C 
ATOM     35  C   UNL     1      -1.992   7.189   0.365  1.00  0.00    -0.000 C 
ATOM     36  C   UNL     1      -0.552   7.349   0.341  1.00  0.00    -0.000 C 
ATOM     37  C   UNL     1       0.219   6.966   1.369  1.00  0.00    -0.000 C 
ATOM     38  C   UNL     1       1.576   6.508   1.149  1.00  0.00    -0.000 C 
ATOM     39  C   UNL     1       2.346   5.989   2.122  1.00  0.00    -0.000 C 
ATOM     40  C   UNL     1       3.348   4.998   1.787  1.00  0.00    -0.000 C 
ATOM     41  C   UNL     1       2.977   3.705   1.762  1.00  0.00    -0.000 C 
ATOM     42  C   UNL     1       3.744   2.565   1.354  1.00  0.00    -0.002 C 
ATOM     43  C   UNL     1       4.574   2.494   0.304  1.00  0.00     0.005 C 
ENDROOT
BRANCH   1  44
ATOM     44  O   UNL     1       6.653   1.277  -0.098  1.00  0.00    -0.342 OA
BRANCH  44  45
ATOM     45  C   UNL     1       7.172   1.618   1.205  1.00  0.00     0.281 C 
ATOM     46  C   UNL     1       8.700   3.474   1.487  1.00  0.00     0.148 C 
ATOM     47  O   UNL     1       7.361   3.031   1.278  1.00  0.00    -0.344 OA
ATOM     48  C   UNL     1       9.683   2.815   0.506  1.00  0.00     0.162 C 
ATOM     49  C   UNL     1       9.646   1.271   0.617  1.00  0.00     0.116 C 
ATOM     50  C   UNL     1       8.454   0.800   1.469  1.00  0.00     0.190 C 
ATOM     51  C   UNL     1       8.696   4.997   1.333  1.00  0.00     0.041 C 
BRANCH  48  52
ATOM     52  O   UNL     1      11.012   3.268   0.784  1.00  0.00    -0.389 OA
ATOM     53  H   UNL     1      11.387   3.630  -0.038  1.00  0.00     0.211 HD
ENDBRANCH  48  52
BRANCH  49  54
ATOM     54  N   UNL     1       9.717   0.631  -0.717  1.00  0.00    -0.323 NA
ATOM     55  H   UNL     1       8.914   0.909  -1.288  1.00  0.00     0.119 HD
ATOM     56  H   UNL     1       9.652  -0.380  -0.591  1.00  0.00     0.119 HD
ENDBRANCH  49  54
BRANCH  50  57
ATOM     57  O   UNL     1       8.235  -0.607   1.296  1.00  0.00    -0.386 OA
ATOM     58  H   UNL     1       7.684  -0.696   0.498  1.00  0.00     0.211 HD
ENDBRANCH  50  57
ENDBRANCH  44  45
ENDBRANCH   1  44
BRANCH   8  59
ATOM     59  C   UNL     1       6.384  -1.545  -3.078  1.00  0.00     0.311 C 
ATOM     60  O   UNL     1       6.144  -2.293  -4.009  1.00  0.00    -0.252 OA
BRANCH  59  61
ATOM     61  O   UNL     1       7.316  -0.577  -3.207  1.00  0.00    -0.481 OA
ATOM     62  H   UNL     1       7.675  -0.693  -4.112  1.00  0.00     0.296 HD
ENDBRANCH  59  61
ENDBRANCH   8  59
BRANCH   5  63
ATOM     63  O   UNL     1       1.898  -2.216  -1.997  1.00  0.00    -0.365 OA
ATOM     64  H   UNL     1       1.079  -2.009  -1.514  1.00  0.00     0.214 HD
ENDBRANCH   5  63
BRANCH   7  65
ATOM     65  O   UNL     1       5.621  -3.093   0.108  1.00  0.00    -0.392 OA
ATOM     66  H   UNL     1       5.957  -3.987   0.294  1.00  0.00     0.210 HD
ENDBRANCH   7  65
BRANCH  10  67
ATOM     67  O   UNL     1      -0.016  -2.945  -0.045  1.00  0.00    -0.393 OA
ATOM     68  H   UNL     1      -0.172  -2.299   0.676  1.00  0.00     0.210 HD
ENDBRANCH  10  67
BRANCH  12  69
ATOM     69  O   UNL     1       0.506  -6.784   0.920  1.00  0.00    -0.390 OA
ATOM     70  H   UNL     1       0.450  -6.173   1.667  1.00  0.00     0.211 HD
ENDBRANCH  12  69
BRANCH  13  71
ATOM     71  O   UNL     1      -1.663  -4.670  -1.232  1.00  0.00    -0.390 OA
ATOM     72  H   UNL     1      -1.127  -3.892  -0.950  1.00  0.00     0.211 HD
ENDBRANCH  13  71
BRANCH  16  73
ATOM     73  O   UNL     1      -4.305  -4.574  -1.021  1.00  0.00    -0.393 OA
ATOM     74  H   UNL     1      -3.354  -4.552  -1.267  1.00  0.00     0.210 HD
ENDBRANCH  16  73
BRANCH  18  75
ATOM     75  O   UNL     1      -6.242  -2.385   1.454  1.00  0.00    -0.392 OA
ATOM     76  H   UNL     1      -6.959  -1.733   1.565  1.00  0.00     0.210 HD
ENDBRANCH  18  75
BRANCH  27  77
ATOM     77  O   UNL     1      -8.822   2.656  -1.096  1.00  0.00    -0.392 OA
ATOM     78  H   UNL     1      -8.263   3.384  -1.429  1.00  0.00     0.210 HD
ENDBRANCH  27  77
TORSDOF 15
