REMARK SMILES N=c1ccn2c(n1)O[C@H]1[C@H](O)[C@@H](CO)O[C@H]12
REMARK SMILES IDX 12 1 15 2 16 3 9 4 8 5 6 6 7 7 2 8 1 9 3 10 4 11 5 12 10 13
REMARK SMILES IDX 13 15 14 16 11 18
REMARK H PARENT 1 14 14 17 11 19
ROOT
ATOM      1  C   UNL     1      -1.957   0.703   0.783  1.00  0.00     0.179 C 
ATOM      2  O   UNL     1      -0.715   1.436   0.780  1.00  0.00    -0.345 OA
ATOM      3  C   UNL     1      -0.061   1.244  -0.480  1.00  0.00     0.267 C 
ATOM      4  C   UNL     1      -0.954   0.410  -1.389  1.00  0.00     0.258 C 
ATOM      5  O   UNL     1      -0.365  -0.901  -1.461  1.00  0.00    -0.454 OA
ATOM      6  C   UNL     1       0.889  -0.810  -0.930  1.00  0.00     0.301 C 
ATOM      7  N   UNL     1       1.708  -1.800  -0.965  1.00  0.00    -0.178 NA
ATOM      8  C   UNL     1       2.926  -1.600  -0.362  1.00  0.00     0.151 C 
ATOM      9  N   UNL     1       3.789  -2.551  -0.453  1.00  0.00    -0.283 NA
ATOM     10  C   UNL     1       3.197  -0.319   0.365  1.00  0.00     0.067 C 
ATOM     11  C   UNL     1       2.259   0.635   0.318  1.00  0.00     0.097 C 
ATOM     12  N   UNL     1       1.100   0.415  -0.370  1.00  0.00    -0.272 N 
ATOM     13  C   UNL     1      -2.288   0.395  -0.676  1.00  0.00     0.191 C 
ATOM     14  H   UNL     1       4.651  -2.306   0.032  1.00  0.00     0.189 HD
ENDROOT
BRANCH   1  15
ATOM     15  C   UNL     1      -1.868  -0.523   1.704  1.00  0.00     0.191 C 
BRANCH  15  16
ATOM     16  O   UNL     1      -0.862  -1.452   1.342  1.00  0.00    -0.394 OA
ATOM     17  H   UNL     1      -1.127  -1.937   0.540  1.00  0.00     0.210 HD
ENDBRANCH  15  16
ENDBRANCH   1  15
BRANCH  13  18
ATOM     18  O   UNL     1      -3.114   1.439  -1.220  1.00  0.00    -0.386 OA
ATOM     19  H   UNL     1      -2.842   2.297  -0.847  1.00  0.00     0.211 HD
ENDBRANCH  13  18
TORSDOF 3
