REMARK SMILES COc1ccc(-c2cc(=S)ss2)cc1
REMARK SMILES IDX 3 1 4 2 5 3 6 4 13 5 14 6 2 7 1 8 7 9 8 10 12 11 9 12 11 13
REMARK SMILES IDX 10 14
REMARK H PARENT
ROOT
ATOM      1  C   UNL     1       1.927  -0.337   0.393  1.00  0.00     0.118 A 
ATOM      2  C   UNL     1       1.323   0.842  -0.042  1.00  0.00     0.047 A 
ATOM      3  C   UNL     1      -0.071   0.921  -0.148  1.00  0.00     0.013 A 
ATOM      4  C   UNL     1      -0.878  -0.177   0.182  1.00  0.00    -0.007 A 
ATOM      5  C   UNL     1      -0.265  -1.358   0.614  1.00  0.00     0.013 A 
ATOM      6  C   UNL     1       1.126  -1.434   0.718  1.00  0.00     0.047 A 
ENDROOT
BRANCH   1   7
ATOM      7  O   UNL     1       3.270  -0.547   0.539  1.00  0.00    -0.497 OA
ATOM      8  C   UNL     1       4.130   0.546   0.243  1.00  0.00     0.278 C 
ENDBRANCH   1   7
BRANCH   4   9
ATOM      9  C   UNL     1      -2.335  -0.092   0.051  1.00  0.00     0.047 C 
ATOM     10  C   UNL     1      -2.939  -0.006  -1.140  1.00  0.00     0.052 C 
ATOM     11  S   UNL     1      -3.276  -0.102   1.497  1.00  0.00    -0.079 SA
ATOM     12  C   UNL     1      -4.414   0.075  -1.120  1.00  0.00     0.102 C 
ATOM     13  S   UNL     1      -5.062   0.029   0.513  1.00  0.00    -0.068 SA
ATOM     14  S   UNL     1      -5.378   0.197  -2.479  1.00  0.00    -0.067 S 
ENDBRANCH   4   9
TORSDOF 2
