REMARK SMILES CC[C@H](C)[C@H](NC(=O)[C@H](Cc1ccc(O)cc1)NC(=O)[C@@H](NC(=O)[C@H](CCCNC(=N)N)NC(=O)[C@@H](N)CC(=O)O)C(C)C)C(=O)N[C@@H](Cc1c[nH]cn1)C(=O)N1CCC[C@H]1C(=O)N[C@@H](Cc1ccccc1)C(=O)O
REMARK SMILES IDX 6 1 7 2 8 3 5 5 3 6 4 7 2 8 1 9 45 10 46 11 47 12 48 14
REMARK SMILES IDX 49 15 50 16 51 17 54 18 52 19 53 20 55 22 56 23 57 24 58 25
REMARK SMILES IDX 61 26 59 27 60 28 62 29 63 30 64 31 65 33 66 34 67 35 68 36
REMARK SMILES IDX 72 37 69 38 71 39 70 40 73 41 74 42 75 43 9 45 10 46 11 47
REMARK SMILES IDX 12 48 17 49 13 50 16 51 14 52 15 53 18 55 19 56 20 57 21 59
REMARK SMILES IDX 22 60 23 61 24 62 25 64 26 65 27 66 28 67 29 68 30 69 32 70
REMARK SMILES IDX 31 71 33 76 34 77 35 78 36 80 37 81 38 84 39 85 40 86 41 87
REMARK SMILES IDX 42 89 43 90 44 91
REMARK H PARENT 6 4 47 13 52 21 64 32 75 44 15 54 18 58 22 63 29 72 32 73
REMARK H PARENT 32 74 31 75 33 79 37 82 37 83 41 88
ROOT
ATOM      1  N   UNL     1      -0.855  -2.031   0.326  1.00  0.00    -0.342 N 
ATOM      2  C   UNL     1       0.226  -2.167  -0.525  1.00  0.00     0.243 C 
ATOM      3  O   UNL     1       0.689  -3.258  -0.855  1.00  0.00    -0.273 OA
ATOM      4  H   UNL     1      -0.922  -1.160   0.841  1.00  0.00     0.164 HD
ENDROOT
BRANCH   1   5
ATOM      5  C   UNL     1      -1.407  -3.222   0.994  1.00  0.00     0.174 C 
BRANCH   5   6
ATOM      6  C   UNL     1      -0.524  -3.613   2.214  1.00  0.00     0.018 C 
ATOM      7  C   UNL     1      -0.692  -2.640   3.389  1.00  0.00     0.010 C 
BRANCH   6   8
ATOM      8  C   UNL     1      -0.762  -5.074   2.645  1.00  0.00     0.002 C 
ATOM      9  C   UNL     1       0.264  -5.578   3.654  1.00  0.00     0.004 C 
ENDBRANCH   6   8
ENDBRANCH   5   6
BRANCH   5  10
ATOM     10  C   UNL     1      -2.898  -3.038   1.370  1.00  0.00     0.243 C 
ATOM     11  O   UNL     1      -3.614  -3.980   1.711  1.00  0.00    -0.273 OA
ATOM     12  N   UNL     1      -3.335  -1.730   1.408  1.00  0.00    -0.342 N 
ATOM     13  H   UNL     1      -2.906  -1.086   0.754  1.00  0.00     0.164 HD
BRANCH  12  14
ATOM     14  C   UNL     1      -4.704  -1.397   1.801  1.00  0.00     0.177 C 
BRANCH  14  15
ATOM     15  C   UNL     1      -4.771  -0.130   2.664  1.00  0.00     0.093 C 
BRANCH  15  16
ATOM     16  C   UNL     1      -4.059  -0.268   3.965  1.00  0.00     0.061 A 
ATOM     17  C   UNL     1      -4.510  -0.798   5.155  1.00  0.00     0.107 A 
ATOM     18  N   UNL     1      -2.766   0.190   4.110  1.00  0.00    -0.242 NA
ATOM     19  N   UNL     1      -3.468  -0.660   6.030  1.00  0.00    -0.351 N 
ATOM     20  C   UNL     1      -2.444  -0.058   5.359  1.00  0.00     0.196 A 
ATOM     21  H   UNL     1      -3.456  -0.942   7.000  1.00  0.00     0.167 HD
ENDBRANCH  15  16
ENDBRANCH  14  15
BRANCH  14  22
ATOM     22  C   UNL     1      -5.493  -1.097   0.517  1.00  0.00     0.246 C 
ATOM     23  O   UNL     1      -4.984  -0.425  -0.387  1.00  0.00    -0.272 OA
BRANCH  22  24
ATOM     24  N   UNL     1      -6.793  -1.533   0.447  1.00  0.00    -0.329 N 
ATOM     25  C   UNL     1      -7.402  -2.587   1.244  1.00  0.00     0.120 C 
ATOM     26  C   UNL     1      -7.695  -1.067  -0.600  1.00  0.00     0.174 C 
ATOM     27  C   UNL     1      -8.824  -2.713   0.713  1.00  0.00     0.024 C 
ATOM     28  C   UNL     1      -8.719  -2.194  -0.720  1.00  0.00     0.037 C 
BRANCH  26  29
ATOM     29  C   UNL     1      -8.382   0.248  -0.155  1.00  0.00     0.243 C 
ATOM     30  O   UNL     1      -8.356   0.663   1.003  1.00  0.00    -0.273 OA
ATOM     31  N   UNL     1      -9.094   0.887  -1.153  1.00  0.00    -0.341 N 
ATOM     32  H   UNL     1      -9.309   0.350  -1.984  1.00  0.00     0.164 HD
BRANCH  31  33
ATOM     33  C   UNL     1     -10.033   1.962  -0.804  1.00  0.00     0.196 C 
BRANCH  33  34
ATOM     34  C   UNL     1     -10.263   2.938  -1.966  1.00  0.00     0.072 C 
BRANCH  34  35
ATOM     35  C   UNL     1      -9.058   3.797  -2.271  1.00  0.00    -0.045 A 
ATOM     36  C   UNL     1      -8.259   3.534  -3.391  1.00  0.00     0.004 A 
ATOM     37  C   UNL     1      -8.721   4.867  -1.430  1.00  0.00     0.004 A 
ATOM     38  C   UNL     1      -7.144   4.329  -3.665  1.00  0.00     0.000 A 
ATOM     39  C   UNL     1      -7.605   5.658  -1.706  1.00  0.00     0.000 A 
ATOM     40  C   UNL     1      -6.817   5.389  -2.823  1.00  0.00     0.000 A 
ENDBRANCH  34  35
ENDBRANCH  33  34
BRANCH  33  41
ATOM     41  C   UNL     1     -11.370   1.306  -0.462  1.00  0.00     0.326 C 
ATOM     42  O   UNL     1     -11.751   0.205  -0.837  1.00  0.00    -0.250 OA
BRANCH  41  43
ATOM     43  O   UNL     1     -12.171   2.086   0.291  1.00  0.00    -0.480 OA
ATOM     44  H   UNL     1     -12.969   1.537   0.446  1.00  0.00     0.296 HD
ENDBRANCH  41  43
ENDBRANCH  33  41
ENDBRANCH  31  33
ENDBRANCH  26  29
ENDBRANCH  22  24
ENDBRANCH  14  22
ENDBRANCH  12  14
ENDBRANCH   5  10
ENDBRANCH   1   5
BRANCH   2  45
ATOM     45  C   UNL     1       0.800  -0.840  -1.055  1.00  0.00     0.175 C 
BRANCH  45  46
ATOM     46  C   UNL     1      -0.040  -0.271  -2.210  1.00  0.00     0.070 C 
BRANCH  46  47
ATOM     47  C   UNL     1       0.007  -1.082  -3.489  1.00  0.00    -0.045 A 
ATOM     48  C   UNL     1       0.986  -0.819  -4.461  1.00  0.00     0.007 A 
ATOM     49  C   UNL     1      -0.908  -2.119  -3.713  1.00  0.00     0.007 A 
ATOM     50  C   UNL     1       1.052  -1.579  -5.631  1.00  0.00     0.046 A 
ATOM     51  C   UNL     1      -0.841  -2.881  -4.882  1.00  0.00     0.046 A 
ATOM     52  C   UNL     1       0.136  -2.606  -5.831  1.00  0.00     0.115 A 
BRANCH  52  53
ATOM     53  O   UNL     1       0.166  -3.375  -6.956  1.00  0.00    -0.508 OA
ATOM     54  H   UNL     1       0.885  -3.060  -7.525  1.00  0.00     0.293 HD
ENDBRANCH  52  53
ENDBRANCH  46  47
ENDBRANCH  45  46
BRANCH  45  55
ATOM     55  N   UNL     1       2.193  -1.071  -1.428  1.00  0.00    -0.342 N 
ATOM     56  C   UNL     1       3.223  -0.289  -0.977  1.00  0.00     0.243 C 
ATOM     57  O   UNL     1       3.040   0.716  -0.289  1.00  0.00    -0.273 OA
ATOM     58  H   UNL     1       2.377  -1.940  -1.921  1.00  0.00     0.164 HD
BRANCH  56  59
ATOM     59  C   UNL     1       4.638  -0.751  -1.386  1.00  0.00     0.174 C 
BRANCH  59  60
ATOM     60  N   UNL     1       5.488   0.434  -1.300  1.00  0.00    -0.342 N 
ATOM     61  C   UNL     1       6.580   0.658  -2.103  1.00  0.00     0.243 C 
ATOM     62  O   UNL     1       6.935  -0.135  -2.967  1.00  0.00    -0.273 OA
ATOM     63  H   UNL     1       5.176   1.187  -0.688  1.00  0.00     0.164 HD
BRANCH  61  64
ATOM     64  C   UNL     1       7.221   2.046  -1.884  1.00  0.00     0.171 C 
BRANCH  64  65
ATOM     65  C   UNL     1       8.620   2.218  -2.488  1.00  0.00     0.037 C 
BRANCH  65  66
ATOM     66  C   UNL     1       9.644   1.085  -2.313  1.00  0.00     0.024 C 
BRANCH  66  67
ATOM     67  C   UNL     1       9.767   0.466  -0.925  1.00  0.00     0.116 C 
BRANCH  67  68
ATOM     68  N   UNL     1      10.016   1.489   0.072  1.00  0.00    -0.357 N 
ATOM     69  C   UNL     1      10.304   1.202   1.361  1.00  0.00     0.185 C 
ATOM     70  N   UNL     1      10.954   2.215   1.958  1.00  0.00    -0.370 N 
ATOM     71  N   UNL     1       9.999   0.150   2.019  1.00  0.00    -0.270 NA
ATOM     72  H   UNL     1      10.638   2.218  -0.271  1.00  0.00     0.163 HD
ATOM     73  H   UNL     1      10.582   3.144   1.749  1.00  0.00     0.159 HD
ATOM     74  H   UNL     1      11.016   2.064   2.961  1.00  0.00     0.159 HD
ATOM     75  H   UNL     1       9.497  -0.512   1.424  1.00  0.00     0.191 HD
ENDBRANCH  67  68
ENDBRANCH  66  67
ENDBRANCH  65  66
ENDBRANCH  64  65
BRANCH  64  76
ATOM     76  N   UNL     1       7.159   2.414  -0.464  1.00  0.00    -0.343 N 
ATOM     77  C   UNL     1       6.982   3.723  -0.071  1.00  0.00     0.238 C 
ATOM     78  O   UNL     1       6.863   4.642  -0.878  1.00  0.00    -0.273 OA
ATOM     79  H   UNL     1       7.664   1.822   0.189  1.00  0.00     0.164 HD
BRANCH  77  80
ATOM     80  C   UNL     1       6.821   3.951   1.450  1.00  0.00     0.152 C 
BRANCH  80  81
ATOM     81  N   UNL     1       7.363   2.855   2.273  1.00  0.00    -0.319 NA
ATOM     82  H   UNL     1       6.880   1.980   2.077  1.00  0.00     0.119 HD
ATOM     83  H   UNL     1       8.354   2.710   2.068  1.00  0.00     0.119 HD
ENDBRANCH  80  81
BRANCH  80  84
ATOM     84  C   UNL     1       7.366   5.317   1.864  1.00  0.00     0.151 C 
BRANCH  84  85
ATOM     85  C   UNL     1       8.813   5.507   1.498  1.00  0.00     0.305 C 
ATOM     86  O   UNL     1       9.657   4.638   1.337  1.00  0.00    -0.252 OA
BRANCH  85  87
ATOM     87  O   UNL     1       9.146   6.811   1.416  1.00  0.00    -0.481 OA
ATOM     88  H   UNL     1      10.096   6.822   1.178  1.00  0.00     0.296 HD
ENDBRANCH  85  87
ENDBRANCH  84  85
ENDBRANCH  80  84
ENDBRANCH  77  80
ENDBRANCH  64  76
ENDBRANCH  61  64
ENDBRANCH  59  60
BRANCH  59  89
ATOM     89  C   UNL     1       5.209  -1.896  -0.516  1.00  0.00     0.015 C 
ATOM     90  C   UNL     1       4.533  -3.239  -0.799  1.00  0.00     0.010 C 
ATOM     91  C   UNL     1       5.162  -1.591   0.985  1.00  0.00     0.010 C 
ENDBRANCH  59  89
ENDBRANCH  56  59
ENDBRANCH  45  55
ENDBRANCH   2  45
TORSDOF 34
