REMARK SMILES COc1ccc(C2C(=O)c3ccccc3C2=O)cc1
REMARK SMILES IDX 3 1 4 2 5 3 6 4 18 5 19 6 2 7 1 8 7 9 8 10 16 11 9 12 10 13
REMARK SMILES IDX 15 14 17 15 11 16 14 17 12 18 13 19
REMARK H PARENT
ROOT
ATOM      1  C   UNL     1       3.435  -0.346  -0.384  1.00  0.00     0.118 A 
ATOM      2  C   UNL     1       2.632   0.265   0.576  1.00  0.00     0.047 A 
ATOM      3  C   UNL     1       1.264  -0.031   0.650  1.00  0.00     0.009 A 
ATOM      4  C   UNL     1       0.673  -0.948  -0.232  1.00  0.00    -0.029 A 
ATOM      5  C   UNL     1       1.494  -1.554  -1.196  1.00  0.00     0.009 A 
ATOM      6  C   UNL     1       2.857  -1.255  -1.270  1.00  0.00     0.047 A 
ENDROOT
BRANCH   1   7
ATOM      7  O   UNL     1       4.776  -0.144  -0.562  1.00  0.00    -0.497 OA
ATOM      8  C   UNL     1       5.413   0.762   0.329  1.00  0.00     0.278 C 
ENDBRANCH   1   7
BRANCH   4   9
ATOM      9  C   UNL     1      -0.800  -1.302  -0.203  1.00  0.00     0.163 C 
ATOM     10  C   UNL     1      -1.590  -0.788   0.993  1.00  0.00     0.178 C 
ATOM     11  C   UNL     1      -1.569  -0.722  -1.385  1.00  0.00     0.178 C 
ATOM     12  O   UNL     1      -1.383  -0.994   2.176  1.00  0.00    -0.293 OA
ATOM     13  C   UNL     1      -2.701   0.029   0.509  1.00  0.00     0.029 A 
ATOM     14  C   UNL     1      -2.687   0.070  -0.876  1.00  0.00     0.029 A 
ATOM     15  O   UNL     1      -1.352  -0.880  -2.573  1.00  0.00    -0.293 OA
ATOM     16  C   UNL     1      -3.664   0.695   1.246  1.00  0.00     0.012 A 
ATOM     17  C   UNL     1      -3.636   0.778  -1.592  1.00  0.00     0.012 A 
ATOM     18  C   UNL     1      -4.632   1.418   0.542  1.00  0.00     0.001 A 
ATOM     19  C   UNL     1      -4.618   1.459  -0.866  1.00  0.00     0.001 A 
ENDBRANCH   4   9
TORSDOF 2
