REMARK SMILES N#CC1(c2ccc(NC(=O)c3cccnc3NCc3ccncc3)cc2)CCCC1
REMARK SMILES IDX 11 1 12 2 13 3 14 4 15 5 16 6 9 7 10 8 8 9 7 11 6 12 25 13
REMARK SMILES IDX 5 14 26 15 4 16 3 17 27 18 2 19 30 20 28 21 1 22 29 23 17 24
REMARK SMILES IDX 18 26 19 27 20 28 24 29 21 30 23 31 22 32
REMARK H PARENT 8 10 17 25
ROOT
ATOM      1  C   UNL     1       2.212  -2.187  -0.466  1.00  0.00     0.082 A 
ATOM      2  C   UNL     1       2.012  -3.144  -1.470  1.00  0.00     0.019 A 
ATOM      3  C   UNL     1       3.116  -3.738  -2.066  1.00  0.00     0.021 A 
ATOM      4  C   UNL     1       4.370  -3.355  -1.629  1.00  0.00     0.113 A 
ATOM      5  N   UNL     1       4.585  -2.440  -0.657  1.00  0.00    -0.239 NA
ATOM      6  C   UNL     1       3.515  -1.858  -0.063  1.00  0.00     0.139 A 
ENDROOT
BRANCH   1   7
ATOM      7  C   UNL     1       1.042  -1.571   0.202  1.00  0.00     0.259 C 
ATOM      8  O   UNL     1       1.014  -1.568   1.428  1.00  0.00    -0.269 OA
ATOM      9  N   UNL     1       0.095  -1.057  -0.665  1.00  0.00    -0.322 N 
ATOM     10  H   UNL     1       0.337  -1.049  -1.649  1.00  0.00     0.170 HD
BRANCH   9  11
ATOM     11  C   UNL     1      -1.131  -0.450  -0.329  1.00  0.00     0.041 A 
ATOM     12  C   UNL     1      -1.618  -0.340   0.971  1.00  0.00     0.026 A 
ATOM     13  C   UNL     1      -1.899   0.069  -1.375  1.00  0.00     0.026 A 
ATOM     14  C   UNL     1      -2.852   0.275   1.223  1.00  0.00     0.007 A 
ATOM     15  C   UNL     1      -3.133   0.683  -1.125  1.00  0.00     0.007 A 
ATOM     16  C   UNL     1      -3.643   0.783   0.180  1.00  0.00    -0.028 A 
BRANCH  16  17
ATOM     17  C   UNL     1      -4.979   1.476   0.455  1.00  0.00     0.082 C 
ATOM     18  C   UNL     1      -5.717   0.938   1.702  1.00  0.00     0.027 C 
ATOM     19  C   UNL     1      -4.762   2.942   0.586  1.00  0.00     0.074 C 
ATOM     20  C   UNL     1      -6.043   1.195  -0.632  1.00  0.00     0.027 C 
ATOM     21  C   UNL     1      -7.182   1.332   1.521  1.00  0.00     0.002 C 
ATOM     22  N   UNL     1      -4.620   4.090   0.685  1.00  0.00    -0.197 NA
ATOM     23  C   UNL     1      -7.396   1.478   0.019  1.00  0.00     0.002 C 
ENDBRANCH  16  17
ENDBRANCH   9  11
ENDBRANCH   1   7
BRANCH   6  24
ATOM     24  N   UNL     1       3.720  -0.852   0.896  1.00  0.00    -0.365 N 
ATOM     25  H   UNL     1       3.065  -1.003   1.667  1.00  0.00     0.162 HD
BRANCH  24  26
ATOM     26  C   UNL     1       5.082  -0.635   1.354  1.00  0.00     0.150 C 
BRANCH  26  27
ATOM     27  C   UNL     1       5.781   0.386   0.492  1.00  0.00    -0.026 A 
ATOM     28  C   UNL     1       6.839   0.017  -0.344  1.00  0.00     0.025 A 
ATOM     29  C   UNL     1       5.377   1.725   0.496  1.00  0.00     0.025 A 
ATOM     30  C   UNL     1       7.447   0.993  -1.118  1.00  0.00     0.111 A 
ATOM     31  C   UNL     1       6.049   2.626  -0.314  1.00  0.00     0.111 A 
ATOM     32  N   UNL     1       7.081   2.293  -1.117  1.00  0.00    -0.265 NA
ENDBRANCH  26  27
ENDBRANCH  24  26
ENDBRANCH   6  24
TORSDOF 6
