REMARK SMILES C=CCC1(C(C)C)C(=O)NC(=O)NC1=O
REMARK SMILES IDX 4 1 8 2 9 3 10 4 11 5 12 6 13 7 14 8 15 9 5 12 6 13 7 14
REMARK SMILES IDX 3 15 2 16 1 17
REMARK H PARENT 10 10 13 11
ROOT
ATOM      1  C   UNL     1      -0.092  -0.233  -0.106  1.00  0.00     0.134 C 
ATOM      2  C   UNL     1       0.564   0.916   0.650  1.00  0.00     0.244 C 
ATOM      3  O   UNL     1       0.766   0.904   1.863  1.00  0.00    -0.273 OA
ATOM      4  N   UNL     1       0.885   2.030  -0.071  1.00  0.00    -0.277 N 
ATOM      5  C   UNL     1       1.072   2.064  -1.414  1.00  0.00     0.328 C 
ATOM      6  O   UNL     1       1.666   2.990  -1.956  1.00  0.00    -0.248 OA
ATOM      7  N   UNL     1       0.615   1.002  -2.124  1.00  0.00    -0.277 N 
ATOM      8  C   UNL     1       0.166  -0.179  -1.607  1.00  0.00     0.244 C 
ATOM      9  O   UNL     1      -0.055  -1.127  -2.361  1.00  0.00    -0.273 OA
ATOM     10  H   UNL     1       1.332   2.773   0.448  1.00  0.00     0.174 HD
ATOM     11  H   UNL     1       0.805   1.013  -3.117  1.00  0.00     0.174 HD
ENDROOT
BRANCH   1  12
ATOM     12  C   UNL     1      -1.655  -0.185   0.092  1.00  0.00     0.008 C 
ATOM     13  C   UNL     1      -2.122  -0.492   1.523  1.00  0.00     0.009 C 
ATOM     14  C   UNL     1      -2.298   1.137  -0.356  1.00  0.00     0.009 C 
ENDBRANCH   1  12
BRANCH   1  15
ATOM     15  C   UNL     1       0.495  -1.571   0.430  1.00  0.00     0.054 C 
BRANCH  15  16
ATOM     16  C   UNL     1       1.953  -1.796   0.100  1.00  0.00    -0.033 C 
ATOM     17  C   UNL     1       2.952  -1.639   0.976  1.00  0.00     0.004 C 
ENDBRANCH  15  16
ENDBRANCH   1  15
TORSDOF 3
