REMARK SMILES N=C(N)NCCC[C@H](N)C(=O)O
REMARK SMILES IDX 7 1 8 2 9 3 10 6 11 7 12 8 6 10 5 11 4 12 2 13 3 14 1 15
REMARK H PARENT 9 4 9 5 12 9 4 16 3 17 3 18 1 19
ROOT
ATOM      1  C   UNL     1      -1.246   0.144   0.504  1.00  0.00     0.032 C 
ENDROOT
BRANCH   1   2
ATOM      2  C   UNL     1      -2.596  -0.297  -0.079  1.00  0.00     0.162 C 
BRANCH   2   3
ATOM      3  N   UNL     1      -2.912   0.371  -1.358  1.00  0.00    -0.318 NA
ATOM      4  H   UNL     1      -2.091   0.423  -1.955  1.00  0.00     0.119 HD
ATOM      5  H   UNL     1      -3.189   1.334  -1.151  1.00  0.00     0.119 HD
ENDBRANCH   2   3
BRANCH   2   6
ATOM      6  C   UNL     1      -3.693  -0.013   0.955  1.00  0.00     0.320 C 
ATOM      7  O   UNL     1      -4.028  -0.750   1.869  1.00  0.00    -0.251 OA
BRANCH   6   8
ATOM      8  O   UNL     1      -4.246   1.216   0.831  1.00  0.00    -0.480 OA
ATOM      9  H   UNL     1      -4.922   1.237   1.540  1.00  0.00     0.296 HD
ENDBRANCH   6   8
ENDBRANCH   2   6
ENDBRANCH   1   2
BRANCH   1  10
ATOM     10  C   UNL     1      -0.045  -0.339  -0.314  1.00  0.00     0.023 C 
BRANCH  10  11
ATOM     11  C   UNL     1       1.274   0.048   0.356  1.00  0.00     0.116 C 
BRANCH  11  12
ATOM     12  N   UNL     1       2.385  -0.404  -0.460  1.00  0.00    -0.357 N 
ATOM     13  C   UNL     1       3.678  -0.145  -0.165  1.00  0.00     0.185 C 
ATOM     14  N   UNL     1       4.514  -0.910  -0.891  1.00  0.00    -0.370 N 
ATOM     15  N   UNL     1       4.158   0.702   0.665  1.00  0.00    -0.270 NA
ATOM     16  H   UNL     1       2.276  -1.359  -0.788  1.00  0.00     0.163 HD
ATOM     17  H   UNL     1       5.467  -0.594  -0.731  1.00  0.00     0.159 HD
ATOM     18  H   UNL     1       4.303  -0.876  -1.881  1.00  0.00     0.159 HD
ATOM     19  H   UNL     1       3.398   1.207   1.121  1.00  0.00     0.191 HD
ENDBRANCH  11  12
ENDBRANCH  10  11
ENDBRANCH   1  10
TORSDOF 7
