REMARK SMILES O=C1CCc2ccc(OCCCCN3CCN(c4cccc(Cl)c4Cl)CC3)cc2N1
REMARK SMILES IDX 12 1 13 2 14 3 17 4 16 5 26 6 15 7 27 8 18 9 22 10 21 11
REMARK SMILES IDX 24 12 20 13 19 14 23 15 25 16 11 17 10 18 9 19 8 20 7 21
REMARK SMILES IDX 28 22 6 23 29 24 5 25 30 26 4 27 2 28 3 29 1 30
REMARK H PARENT 30 31
ROOT
ATOM      1  C   UNL     1       0.316  -2.261   0.940  1.00  0.00     0.019 C 
ENDROOT
BRANCH   1   2
ATOM      2  C   UNL     1       0.830  -1.210  -0.056  1.00  0.00     0.085 C 
BRANCH   2   3
ATOM      3  N   UNL     1       1.804  -0.268   0.519  1.00  0.00    -0.300 NA
ATOM      4  N   UNL     1       4.159  -0.247  -1.311  1.00  0.00    -0.368 N 
ATOM      5  C   UNL     1       2.932   0.494  -1.656  1.00  0.00     0.132 C 
ATOM      6  C   UNL     1       3.963  -1.349  -0.344  1.00  0.00     0.132 C 
ATOM      7  C   UNL     1       2.076   0.850  -0.417  1.00  0.00     0.106 C 
ATOM      8  C   UNL     1       3.099  -0.904   0.860  1.00  0.00     0.106 C 
BRANCH   4   9
ATOM      9  C   UNL     1       5.399   0.401  -1.255  1.00  0.00     0.057 A 
ATOM     10  C   UNL     1       7.835   0.420  -1.579  1.00  0.00     0.061 A 
ATOM     11  C   UNL     1       7.901   1.726  -1.092  1.00  0.00     0.022 A 
ATOM     12  C   UNL     1       6.598  -0.243  -1.668  1.00  0.00     0.083 A 
ATOM     13  C   UNL     1       6.738   2.377  -0.700  1.00  0.00     0.004 A 
ATOM     14  C   UNL     1       5.506   1.722  -0.785  1.00  0.00     0.027 A 
ATOM     15  Cl  UNL     1       9.328  -0.314  -2.060  1.00  0.00    -0.083 Cl
ATOM     16  Cl  UNL     1       6.529  -1.844  -2.357  1.00  0.00    -0.080 Cl
ENDBRANCH   4   9
ENDBRANCH   2   3
ENDBRANCH   1   2
BRANCH   1  17
ATOM     17  C   UNL     1      -0.220  -1.698   2.263  1.00  0.00     0.043 C 
BRANCH  17  18
ATOM     18  C   UNL     1      -1.307  -0.636   2.107  1.00  0.00     0.229 C 
BRANCH  18  19
ATOM     19  O   UNL     1      -2.374  -1.178   1.330  1.00  0.00    -0.494 OA
BRANCH  19  20
ATOM     20  C   UNL     1      -3.432  -0.355   1.059  1.00  0.00     0.121 A 
ATOM     21  C   UNL     1      -3.583   0.961   1.501  1.00  0.00     0.047 A 
ATOM     22  C   UNL     1      -4.426  -0.930   0.263  1.00  0.00     0.072 A 
ATOM     23  C   UNL     1      -4.716   1.699   1.144  1.00  0.00     0.010 A 
ATOM     24  C   UNL     1      -5.564  -0.199  -0.075  1.00  0.00     0.048 A 
ATOM     25  C   UNL     1      -5.716   1.120   0.359  1.00  0.00    -0.024 A 
ATOM     26  N   UNL     1      -6.550  -0.781  -0.878  1.00  0.00    -0.326 N 
ATOM     27  C   UNL     1      -6.895   1.920  -0.121  1.00  0.00     0.047 C 
ATOM     28  C   UNL     1      -7.768  -0.209  -1.135  1.00  0.00     0.224 C 
ATOM     29  C   UNL     1      -8.109   1.032  -0.342  1.00  0.00     0.105 C 
ATOM     30  O   UNL     1      -8.569  -0.741  -1.899  1.00  0.00    -0.275 OA
ATOM     31  H   UNL     1      -6.385  -1.681  -1.311  1.00  0.00     0.169 HD
ENDBRANCH  19  20
ENDBRANCH  18  19
ENDBRANCH  17  18
ENDBRANCH   1  17
TORSDOF 7
