REMARK SMILES CCCCCCCCCCCC(=O)OCN1C(=O)CCc2ccc(OCCCCN3CCN(c4cccc(Cl)c4Cl)CC3)cc21
REMARK SMILES IDX 12 1 13 2 11 3 10 4 9 5 8 6 7 7 6 8 5 9 4 10 3 11 2 12 1 13
REMARK SMILES IDX 14 14 15 15 16 16 17 17 45 18 18 19 19 20 44 21 21 22 20 23
REMARK SMILES IDX 24 24 22 25 23 26 25 27 26 28 27 29 28 30 29 31 30 32 31 33
REMARK SMILES IDX 43 34 32 35 42 36 33 37 34 38 40 39 35 40 38 41 36 42 37 43
REMARK SMILES IDX 41 44 39 45
REMARK H PARENT
ROOT
ATOM      1  C   UNL     1       2.213  -0.931  -0.326  1.00  0.00     0.307 C 
ATOM      2  O   UNL     1       1.530  -0.699   0.662  1.00  0.00    -0.252 OA
ENDROOT
BRANCH   1   3
ATOM      3  C   UNL     1       3.353  -0.053  -0.779  1.00  0.00     0.123 C 
BRANCH   3   4
ATOM      4  C   UNL     1       4.665  -0.828  -0.863  1.00  0.00     0.012 C 
BRANCH   4   5
ATOM      5  C   UNL     1       5.834   0.090  -1.224  1.00  0.00     0.001 C 
BRANCH   5   6
ATOM      6  C   UNL     1       7.135  -0.667  -1.507  1.00  0.00     0.000 C 
BRANCH   6   7
ATOM      7  C   UNL     1       7.668  -1.523  -0.356  1.00  0.00     0.000 C 
BRANCH   7   8
ATOM      8  C   UNL     1       7.986  -0.768   0.938  1.00  0.00     0.000 C 
BRANCH   8   9
ATOM      9  C   UNL     1       9.102   0.266   0.771  1.00  0.00    -0.000 C 
BRANCH   9  10
ATOM     10  C   UNL     1       9.497   0.881   2.117  1.00  0.00    -0.000 C 
BRANCH  10  11
ATOM     11  C   UNL     1      10.639   1.886   1.950  1.00  0.00    -0.000 C 
BRANCH  11  12
ATOM     12  C   UNL     1      11.042   2.575   3.255  1.00  0.00    -0.003 C 
ATOM     13  C   UNL     1      11.630   1.623   4.286  1.00  0.00     0.004 C 
ENDBRANCH  11  12
ENDBRANCH  10  11
ENDBRANCH   9  10
ENDBRANCH   8   9
ENDBRANCH   7   8
ENDBRANCH   6   7
ENDBRANCH   5   6
ENDBRANCH   4   5
ENDBRANCH   3   4
ENDBRANCH   1   3
BRANCH   1  14
ATOM     14  O   UNL     1       2.023  -1.959  -1.187  1.00  0.00    -0.444 OA
BRANCH  14  15
ATOM     15  C   UNL     1       1.010  -2.898  -0.816  1.00  0.00     0.362 C 
BRANCH  15  16
ATOM     16  N   UNL     1       0.302  -3.301  -2.021  1.00  0.00    -0.278 N 
ATOM     17  C   UNL     1       0.772  -4.427  -2.690  1.00  0.00     0.230 C 
ATOM     18  C   UNL     1      -0.821  -2.552  -2.491  1.00  0.00     0.054 A 
ATOM     19  O   UNL     1       1.690  -5.135  -2.271  1.00  0.00    -0.274 OA
ATOM     20  C   UNL     1       0.162  -4.703  -4.043  1.00  0.00     0.105 C 
ATOM     21  C   UNL     1      -1.164  -1.297  -1.959  1.00  0.00     0.073 A 
ATOM     22  C   UNL     1      -1.631  -3.101  -3.499  1.00  0.00    -0.023 A 
ATOM     23  C   UNL     1      -1.333  -4.475  -4.023  1.00  0.00     0.047 C 
ATOM     24  C   UNL     1      -2.292  -0.605  -2.411  1.00  0.00     0.121 A 
ATOM     25  C   UNL     1      -2.762  -2.410  -3.950  1.00  0.00     0.010 A 
ATOM     26  C   UNL     1      -3.083  -1.165  -3.412  1.00  0.00     0.047 A 
BRANCH  24  27
ATOM     27  O   UNL     1      -2.721   0.614  -1.957  1.00  0.00    -0.494 OA
BRANCH  27  28
ATOM     28  C   UNL     1      -2.065   1.147  -0.805  1.00  0.00     0.229 C 
BRANCH  28  29
ATOM     29  C   UNL     1      -2.802   2.410  -0.356  1.00  0.00     0.043 C 
BRANCH  29  30
ATOM     30  C   UNL     1      -4.238   2.110   0.095  1.00  0.00     0.019 C 
BRANCH  30  31
ATOM     31  C   UNL     1      -4.930   3.384   0.605  1.00  0.00     0.085 C 
BRANCH  31  32
ATOM     32  N   UNL     1      -6.319   3.242   1.042  1.00  0.00    -0.300 NA
ATOM     33  C   UNL     1      -7.246   2.765  -0.002  1.00  0.00     0.106 C 
ATOM     34  C   UNL     1      -6.468   2.497   2.306  1.00  0.00     0.106 C 
ATOM     35  C   UNL     1      -7.727   1.299   0.143  1.00  0.00     0.132 C 
ATOM     36  C   UNL     1      -7.914   2.001   2.534  1.00  0.00     0.132 C 
ATOM     37  N   UNL     1      -8.281   1.026   1.490  1.00  0.00    -0.368 N 
BRANCH  37  38
ATOM     38  C   UNL     1      -9.489   0.320   1.563  1.00  0.00     0.057 A 
ATOM     39  C   UNL     1      -9.678  -0.961   0.973  1.00  0.00     0.083 A 
ATOM     40  C   UNL     1     -10.589   0.867   2.256  1.00  0.00     0.027 A 
ATOM     41  C   UNL     1     -10.927  -1.610   1.046  1.00  0.00     0.061 A 
ATOM     42  C   UNL     1     -11.823   0.217   2.331  1.00  0.00     0.004 A 
ATOM     43  C   UNL     1     -11.996  -1.016   1.717  1.00  0.00     0.022 A 
ATOM     44  Cl  UNL     1      -8.342  -1.798   0.228  1.00  0.00    -0.080 Cl
ATOM     45  Cl  UNL     1     -11.222  -3.162   0.333  1.00  0.00    -0.083 Cl
ENDBRANCH  37  38
ENDBRANCH  31  32
ENDBRANCH  30  31
ENDBRANCH  29  30
ENDBRANCH  28  29
ENDBRANCH  27  28
ENDBRANCH  24  27
ENDBRANCH  15  16
ENDBRANCH  14  15
ENDBRANCH   1  14
TORSDOF 20
