REMARK SMILES COc1ccc(CCN2CCC(Nc3nc4ccccc4n3Cc3ccc(F)cc3)CC2)cc1
REMARK SMILES IDX 9 1 10 2 11 3 12 4 31 5 32 6 8 7 7 8 6 9 3 10 4 11 34 12
REMARK SMILES IDX 5 13 33 14 2 15 1 16 13 17 14 19 15 20 22 21 16 22 21 23
REMARK SMILES IDX 17 24 20 25 18 26 19 27 23 28 24 29 25 30 30 31 26 32 29 33
REMARK SMILES IDX 27 34 28 35
REMARK H PARENT 13 18
ROOT
ATOM      1  N   UNL     1       1.810  -0.653   0.083  1.00  0.00    -0.303 NA
ATOM      2  C   UNL     1       0.998   0.554  -0.152  1.00  0.00     0.086 C 
ATOM      3  C   UNL     1      -0.491   0.272   0.045  1.00  0.00     0.040 C 
ATOM      4  C   UNL     1      -0.760  -0.289   1.441  1.00  0.00     0.084 C 
ATOM      5  C   UNL     1       0.127  -1.511   1.685  1.00  0.00     0.040 C 
ATOM      6  C   UNL     1       1.594  -1.165   1.448  1.00  0.00     0.086 C 
ENDROOT
BRANCH   1   7
ATOM      7  C   UNL     1       3.250  -0.395  -0.130  1.00  0.00     0.089 C 
BRANCH   7   8
ATOM      8  C   UNL     1       3.619  -0.165  -1.606  1.00  0.00     0.051 C 
BRANCH   8   9
ATOM      9  C   UNL     1       5.114  -0.045  -1.792  1.00  0.00    -0.046 A 
ATOM     10  C   UNL     1       7.905   0.177  -2.097  1.00  0.00     0.118 A 
ATOM     11  C   UNL     1       7.130   1.315  -1.870  1.00  0.00     0.046 A 
ATOM     12  C   UNL     1       7.280  -1.069  -2.163  1.00  0.00     0.046 A 
ATOM     13  C   UNL     1       5.744   1.204  -1.718  1.00  0.00     0.007 A 
ATOM     14  C   UNL     1       5.896  -1.183  -2.012  1.00  0.00     0.007 A 
BRANCH  10  15
ATOM     15  O   UNL     1       9.262   0.147  -2.263  1.00  0.00    -0.497 OA
ATOM     16  C   UNL     1       9.935   1.400  -2.268  1.00  0.00     0.278 C 
ENDBRANCH  10  15
ENDBRANCH   8   9
ENDBRANCH   7   8
ENDBRANCH   1   7
BRANCH   4  17
ATOM     17  N   UNL     1      -2.164  -0.687   1.576  1.00  0.00    -0.353 N 
ATOM     18  H   UNL     1      -2.424  -1.431   0.935  1.00  0.00     0.163 HD
BRANCH  17  19
ATOM     19  C   UNL     1      -3.080   0.271   1.851  1.00  0.00     0.204 A 
ATOM     20  N   UNL     1      -2.849   1.518   2.193  1.00  0.00    -0.213 NA
ATOM     21  N   UNL     1      -4.435   0.019   1.800  1.00  0.00    -0.306 N 
ATOM     22  C   UNL     1      -4.079   2.102   2.344  1.00  0.00     0.091 A 
ATOM     23  C   UNL     1      -5.101   1.189   2.102  1.00  0.00     0.070 A 
ATOM     24  C   UNL     1      -4.400   3.422   2.692  1.00  0.00     0.031 A 
ATOM     25  C   UNL     1      -6.457   1.534   2.192  1.00  0.00     0.028 A 
ATOM     26  C   UNL     1      -5.748   3.788   2.786  1.00  0.00     0.002 A 
ATOM     27  C   UNL     1      -6.757   2.856   2.538  1.00  0.00     0.002 A 
BRANCH  21  28
ATOM     28  C   UNL     1      -5.059  -1.275   1.575  1.00  0.00     0.161 C 
BRANCH  28  29
ATOM     29  C   UNL     1      -5.010  -1.707   0.126  1.00  0.00    -0.028 A 
ATOM     30  C   UNL     1      -4.517  -2.981  -0.208  1.00  0.00     0.008 A 
ATOM     31  C   UNL     1      -5.486  -0.875  -0.901  1.00  0.00     0.008 A 
ATOM     32  C   UNL     1      -4.484  -3.401  -1.539  1.00  0.00     0.039 A 
ATOM     33  C   UNL     1      -5.452  -1.299  -2.231  1.00  0.00     0.039 A 
ATOM     34  C   UNL     1      -4.951  -2.557  -2.537  1.00  0.00     0.123 A 
ATOM     35  F   UNL     1      -4.922  -2.963  -3.813  1.00  0.00    -0.207 F 
ENDBRANCH  28  29
ENDBRANCH  21  28
ENDBRANCH  17  19
ENDBRANCH   4  17
TORSDOF 8
