REMARK SMILES CC(C)c1c(C(=O)Nc2ccccc2)c(-c2ccccc2)c(-c2ccc(F)cc2)n1CC[C@@H](O)C[C@@H](O)CC(=O)O
REMARK SMILES IDX 33 1 32 2 31 3 30 4 4 5 5 6 15 7 22 8 2 9 1 10 3 11 6 12
REMARK SMILES IDX 7 13 8 14 9 16 10 17 14 18 11 19 13 20 12 21 16 22 17 23
REMARK SMILES IDX 21 24 18 25 20 26 19 27 23 28 24 29 29 30 25 31 28 32 26 33
REMARK SMILES IDX 27 34 34 35 35 37 36 38 37 39 38 41 39 42 40 43 41 44
REMARK H PARENT 8 15 34 36 37 40 41 45
ROOT
ATOM      1  C   UNL     1       4.007  -0.789  -0.045  1.00  0.00     0.118 C 
ENDROOT
BRANCH   1   2
ATOM      2  C   UNL     1       2.557  -0.332  -0.218  1.00  0.00     0.053 C 
BRANCH   2   3
ATOM      3  C   UNL     1       1.591  -1.253   0.530  1.00  0.00     0.125 C 
BRANCH   3   4
ATOM      4  N   UNL     1       0.194  -0.845   0.375  1.00  0.00    -0.343 N 
ATOM      5  C   UNL     1      -0.664  -1.284  -0.627  1.00  0.00     0.034 A 
ATOM      6  C   UNL     1      -1.931  -0.771  -0.340  1.00  0.00     0.069 A 
ATOM      7  C   UNL     1      -1.799   0.042   0.836  1.00  0.00     0.021 A 
ATOM      8  C   UNL     1      -0.476  -0.007   1.251  1.00  0.00     0.057 A 
BRANCH   5   9
ATOM      9  C   UNL     1      -0.187  -2.166  -1.770  1.00  0.00     0.031 C 
ATOM     10  C   UNL     1      -0.533  -3.635  -1.530  1.00  0.00     0.014 C 
ATOM     11  C   UNL     1      -0.675  -1.686  -3.138  1.00  0.00     0.014 C 
ENDBRANCH   5   9
BRANCH   6  12
ATOM     12  C   UNL     1      -3.164  -1.024  -1.101  1.00  0.00     0.258 C 
ATOM     13  O   UNL     1      -3.470  -2.155  -1.460  1.00  0.00    -0.269 OA
ATOM     14  N   UNL     1      -3.879   0.131  -1.357  1.00  0.00    -0.322 N 
ATOM     15  H   UNL     1      -3.477   0.984  -0.994  1.00  0.00     0.170 HD
BRANCH  14  16
ATOM     16  C   UNL     1      -5.095   0.266  -2.053  1.00  0.00     0.041 A 
ATOM     17  C   UNL     1      -5.616   1.561  -2.175  1.00  0.00     0.026 A 
ATOM     18  C   UNL     1      -5.797  -0.799  -2.620  1.00  0.00     0.026 A 
ATOM     19  C   UNL     1      -6.813   1.787  -2.859  1.00  0.00     0.002 A 
ATOM     20  C   UNL     1      -6.997  -0.573  -3.301  1.00  0.00     0.002 A 
ATOM     21  C   UNL     1      -7.504   0.718  -3.423  1.00  0.00     0.000 A 
ENDBRANCH  14  16
ENDBRANCH   6  12
BRANCH   7  22
ATOM     22  C   UNL     1      -2.841   0.756   1.564  1.00  0.00    -0.015 A 
ATOM     23  C   UNL     1      -2.792   2.149   1.700  1.00  0.00     0.009 A 
ATOM     24  C   UNL     1      -3.927   0.051   2.094  1.00  0.00     0.009 A 
ATOM     25  C   UNL     1      -3.815   2.826   2.366  1.00  0.00     0.001 A 
ATOM     26  C   UNL     1      -4.951   0.730   2.757  1.00  0.00     0.001 A 
ATOM     27  C   UNL     1      -4.894   2.117   2.893  1.00  0.00     0.000 A 
ENDBRANCH   7  22
BRANCH   8  28
ATOM     28  C   UNL     1       0.149   0.610   2.424  1.00  0.00    -0.001 A 
ATOM     29  C   UNL     1       0.858   1.812   2.300  1.00  0.00     0.013 A 
ATOM     30  C   UNL     1       0.023   0.007   3.683  1.00  0.00     0.013 A 
ATOM     31  C   UNL     1       1.447   2.397   3.422  1.00  0.00     0.040 A 
ATOM     32  C   UNL     1       0.613   0.593   4.804  1.00  0.00     0.040 A 
ATOM     33  C   UNL     1       1.320   1.781   4.662  1.00  0.00     0.123 A 
ATOM     34  F   UNL     1       1.884   2.344   5.738  1.00  0.00    -0.207 F 
ENDBRANCH   8  28
ENDBRANCH   3   4
ENDBRANCH   2   3
ENDBRANCH   1   2
BRANCH   1  35
ATOM     35  O   UNL     1       4.136  -2.080  -0.632  1.00  0.00    -0.393 OA
ATOM     36  H   UNL     1       5.091  -2.304  -0.619  1.00  0.00     0.210 HD
ENDBRANCH   1  35
BRANCH   1  37
ATOM     37  C   UNL     1       4.978   0.198  -0.713  1.00  0.00     0.064 C 
BRANCH  37  38
ATOM     38  C   UNL     1       6.449  -0.163  -0.451  1.00  0.00     0.128 C 
BRANCH  38  39
ATOM     39  O   UNL     1       6.712  -1.455  -1.010  1.00  0.00    -0.392 OA
ATOM     40  H   UNL     1       6.729  -1.375  -1.983  1.00  0.00     0.210 HD
ENDBRANCH  38  39
BRANCH  38  41
ATOM     41  C   UNL     1       7.387   0.878  -1.057  1.00  0.00     0.154 C 
BRANCH  41  42
ATOM     42  C   UNL     1       8.789   0.716  -0.546  1.00  0.00     0.305 C 
ATOM     43  O   UNL     1       9.773   0.468  -1.224  1.00  0.00    -0.252 OA
BRANCH  42  44
ATOM     44  O   UNL     1       8.900   0.934   0.778  1.00  0.00    -0.481 OA
ATOM     45  H   UNL     1       9.856   0.804   0.960  1.00  0.00     0.296 HD
ENDBRANCH  42  44
ENDBRANCH  41  42
ENDBRANCH  38  41
ENDBRANCH  37  38
ENDBRANCH   1  37
TORSDOF 15
