REMARK SMILES NC(=O)[C@@H]1CC[C@@H]2CN1C(=O)N2OS(=O)(=O)O
REMARK SMILES IDX 13 1 12 2 4 3 5 4 9 5 6 6 8 7 10 8 7 9 11 10 2 11 1 12 3 13
REMARK SMILES IDX 14 16 15 17 16 18 17 19
REMARK H PARENT 1 14 1 15 17 20
ROOT
ATOM      1  O   UNL     1       2.000  -1.818  -0.394  1.00  0.00    -0.122 OA
ENDROOT
BRANCH   1   2
ATOM      2  N   UNL     1       0.956  -0.855  -0.532  1.00  0.00    -0.178 N 
ATOM      3  C   UNL     1      -1.027   1.254   0.429  1.00  0.00     0.176 C 
ATOM      4  C   UNL     1      -1.902   0.639  -0.693  1.00  0.00     0.038 C 
ATOM      5  N   UNL     1      -0.198   0.237   1.111  1.00  0.00    -0.309 N 
ATOM      6  C   UNL     1      -1.316  -0.628  -1.363  1.00  0.00     0.032 C 
ATOM      7  C   UNL     1      -0.742  -1.112   1.006  1.00  0.00     0.150 C 
ATOM      8  C   UNL     1       1.077   0.120   0.486  1.00  0.00     0.346 C 
ATOM      9  C   UNL     1      -0.380  -1.433  -0.435  1.00  0.00     0.139 C 
ATOM     10  O   UNL     1       2.110   0.681   0.821  1.00  0.00    -0.246 OA
BRANCH   3  11
ATOM     11  C   UNL     1      -1.876   2.015   1.464  1.00  0.00     0.240 C 
ATOM     12  N   UNL     1      -1.252   2.244   2.659  1.00  0.00    -0.368 N 
ATOM     13  O   UNL     1      -2.974   2.505   1.225  1.00  0.00    -0.273 OA
ATOM     14  H   UNL     1      -1.770   2.712   3.390  1.00  0.00     0.159 HD
ATOM     15  H   UNL     1      -0.414   1.726   2.899  1.00  0.00     0.159 HD
ENDBRANCH   3  11
ENDBRANCH   1   2
BRANCH   1  16
ATOM     16  S   UNL     1       3.389  -1.420  -1.187  1.00  0.00     0.418 S 
ATOM     17  O   UNL     1       4.124  -2.643  -1.424  1.00  0.00    -0.167 OA
ATOM     18  O   UNL     1       3.070  -0.516  -2.272  1.00  0.00    -0.167 OA
BRANCH  16  19
ATOM     19  O   UNL     1       4.200  -0.566  -0.082  1.00  0.00    -0.262 OA
ATOM     20  H   UNL     1       3.593   0.122   0.289  1.00  0.00     0.236 HD
ENDBRANCH  16  19
ENDBRANCH   1  16
TORSDOF 4
