REMARK SMILES CN1C(=O)COc2c(C(=O)NC3CN4CCC3CC4)cc(Cl)cc21
REMARK SMILES IDX 1 1 2 2 3 3 4 4 5 5 6 6 7 7 8 8 20 9 21 10 22 11 23 12 24 13
REMARK SMILES IDX 9 14 10 15 11 16 12 18 13 19 17 20 14 21 16 22 18 23 15 24
REMARK SMILES IDX 19 25
REMARK H PARENT 11 17
ROOT
ATOM      1  C   UNL     1      -5.609   0.695   0.618  1.00  0.00     0.153 C 
ATOM      2  N   UNL     1      -4.193   0.370   0.687  1.00  0.00    -0.309 N 
ATOM      3  C   UNL     1      -3.481   0.717   1.828  1.00  0.00     0.264 C 
ATOM      4  O   UNL     1      -3.958   1.322   2.787  1.00  0.00    -0.271 OA
ATOM      5  C   UNL     1      -2.054   0.199   1.853  1.00  0.00     0.330 C 
ATOM      6  O   UNL     1      -1.373   0.120   0.614  1.00  0.00    -0.481 OA
ATOM      7  C   UNL     1      -2.134  -0.412  -0.398  1.00  0.00     0.156 A 
ATOM      8  C   UNL     1      -1.470  -1.018  -1.487  1.00  0.00     0.085 A 
ATOM      9  C   UNL     1      -2.229  -1.522  -2.554  1.00  0.00     0.038 A 
ATOM     10  C   UNL     1      -3.614  -1.410  -2.545  1.00  0.00     0.044 A 
ATOM     11  Cl  UNL     1      -4.530  -2.030  -3.862  1.00  0.00    -0.084 Cl
ATOM     12  C   UNL     1      -4.269  -0.796  -1.480  1.00  0.00     0.050 A 
ATOM     13  C   UNL     1      -3.541  -0.290  -0.395  1.00  0.00     0.088 A 
ENDROOT
BRANCH   8  14
ATOM     14  C   UNL     1       0.016  -1.180  -1.604  1.00  0.00     0.255 C 
ATOM     15  O   UNL     1       0.498  -1.731  -2.589  1.00  0.00    -0.269 OA
ATOM     16  N   UNL     1       0.800  -0.683  -0.588  1.00  0.00    -0.348 N 
ATOM     17  H   UNL     1       0.345  -0.108   0.112  1.00  0.00     0.164 HD
BRANCH  16  18
ATOM     18  C   UNL     1       2.252  -0.662  -0.683  1.00  0.00     0.099 C 
ATOM     19  C   UNL     1       2.772   0.420  -1.669  1.00  0.00     0.109 C 
ATOM     20  C   UNL     1       2.914  -0.428   0.693  1.00  0.00     0.015 C 
ATOM     21  N   UNL     1       3.843   1.257  -1.066  1.00  0.00    -0.301 NA
ATOM     22  C   UNL     1       4.430  -0.604   0.500  1.00  0.00     0.021 C 
ATOM     23  C   UNL     1       2.687   1.029   1.136  1.00  0.00     0.021 C 
ATOM     24  C   UNL     1       4.925   0.371  -0.583  1.00  0.00     0.085 C 
ATOM     25  C   UNL     1       3.271   1.986   0.085  1.00  0.00     0.085 C 
ENDBRANCH  16  18
ENDBRANCH   8  14
TORSDOF 2
