REMARK SMILES O=C(O)CCCCCCCC(=O)O
REMARK SMILES IDX 7 1 6 2 5 3 4 4 2 5 1 6 3 7 8 9 9 10 10 11 11 12 12 13 13 14
REMARK H PARENT 3 8 13 15
ROOT
ATOM      1  C   UNL     1      -0.011  -0.710   0.608  1.00  0.00     0.000 C 
ENDROOT
BRANCH   1   2
ATOM      2  C   UNL     1       1.227  -1.568   0.326  1.00  0.00     0.001 C 
BRANCH   2   3
ATOM      3  C   UNL     1       2.278  -0.945  -0.598  1.00  0.00     0.012 C 
BRANCH   3   4
ATOM      4  C   UNL     1       2.838   0.378  -0.078  1.00  0.00     0.122 C 
BRANCH   4   5
ATOM      5  C   UNL     1       3.962   0.882  -0.943  1.00  0.00     0.303 C 
ATOM      6  O   UNL     1       4.373   0.402  -1.985  1.00  0.00    -0.252 OA
BRANCH   5   7
ATOM      7  O   UNL     1       4.517   2.002  -0.440  1.00  0.00    -0.481 OA
ATOM      8  H   UNL     1       5.220   2.229  -1.085  1.00  0.00     0.296 HD
ENDBRANCH   5   7
ENDBRANCH   4   5
ENDBRANCH   3   4
ENDBRANCH   2   3
ENDBRANCH   1   2
BRANCH   1   9
ATOM      9  C   UNL     1      -0.810  -0.364  -0.651  1.00  0.00     0.001 C 
BRANCH   9  10
ATOM     10  C   UNL     1      -2.054   0.482  -0.363  1.00  0.00     0.012 C 
BRANCH  10  11
ATOM     11  C   UNL     1      -3.117  -0.256   0.443  1.00  0.00     0.122 C 
BRANCH  11  12
ATOM     12  C   UNL     1      -4.382   0.551   0.523  1.00  0.00     0.303 C 
ATOM     13  O   UNL     1      -5.420   0.326  -0.075  1.00  0.00    -0.252 OA
BRANCH  12  14
ATOM     14  O   UNL     1      -4.277   1.606   1.352  1.00  0.00    -0.481 OA
ATOM     15  H   UNL     1      -5.158   2.033   1.305  1.00  0.00     0.296 HD
ENDBRANCH  12  14
ENDBRANCH  11  12
ENDBRANCH  10  11
ENDBRANCH   9  10
ENDBRANCH   1   9
TORSDOF 10
