REMARK SMILES CN1CCCC(n2nc(Cc3ccc(Cl)cc3)c3ccccc3c2=O)CC1
REMARK SMILES IDX 6 1 26 2 27 3 2 4 1 5 3 6 5 8 4 9 7 11 8 12 24 13 9 14 23 15
REMARK SMILES IDX 25 16 18 17 22 18 19 19 21 20 20 21 10 22 11 23 12 24 17 25
REMARK SMILES IDX 13 26 16 27 14 28 15 29
REMARK H PARENT
REMARK Flexibility Score:   54.900
ROOT
ATOM      1  C   UNL     1      -1.782   0.403  -0.396  1.00  0.00     0.113 C 
ENDROOT
BRANCH   1   2
ATOM      2  C   UNL     1      -2.870  -0.167  -1.320  1.00  0.00     0.043 C 
BRANCH   2   3
ATOM      3  C   UNL     1      -3.947   0.867  -1.659  1.00  0.00     0.086 C 
BRANCH   3   4
ATOM      4  N   UNL     1      -5.059   0.986  -0.715  1.00  0.00    -0.306 NA
ATOM      5  C   UNL     1      -5.844   2.188  -0.994  1.00  0.00     0.105 C 
BRANCH   4   6
ATOM      6  C   UNL     1      -4.743   0.857   0.707  1.00  0.00     0.084 CG0
ATOM      7  G   UNL     1      -3.464   1.541   1.195  1.00  0.00     0.000 G0
ENDBRANCH   4   6
ENDBRANCH   3   4
ENDBRANCH   2   3
ENDBRANCH   1   2
BRANCH   1   8
ATOM      8  C   UNL     1      -2.227   0.656   1.050  1.00  0.00     0.029 C 
BRANCH   8   9
ATOM      9  C   UNL     1      -3.464   1.541   1.195  1.00  0.00     0.018 CG0
ATOM     10  G   UNL     1      -4.743   0.857   0.707  1.00  0.00     0.000 G0
ENDBRANCH   8   9
ENDBRANCH   1   8
BRANCH   1  11
ATOM     11  N   UNL     1      -0.553  -0.421  -0.435  1.00  0.00    -0.226 N 
ATOM     12  N   UNL     1       0.567   0.234  -0.892  1.00  0.00    -0.174 NA
ATOM     13  C   UNL     1      -0.555  -1.751  -0.019  1.00  0.00     0.274 C 
ATOM     14  C   UNL     1       1.701  -0.395  -0.959  1.00  0.00     0.073 C 
ATOM     15  C   UNL     1       0.730  -2.469  -0.099  1.00  0.00     0.051 A 
ATOM     16  O   UNL     1      -1.542  -2.350   0.401  1.00  0.00    -0.267 OA
ATOM     17  C   UNL     1       1.863  -1.811  -0.565  1.00  0.00     0.011 A 
ATOM     18  C   UNL     1       0.805  -3.813   0.294  1.00  0.00     0.014 A 
ATOM     19  C   UNL     1       3.081  -2.500  -0.638  1.00  0.00     0.011 A 
ATOM     20  C   UNL     1       2.018  -4.496   0.221  1.00  0.00     0.001 A 
ATOM     21  C   UNL     1       3.155  -3.839  -0.244  1.00  0.00     0.001 A 
BRANCH  14  22
ATOM     22  C   UNL     1       2.898   0.402  -1.464  1.00  0.00     0.094 C 
BRANCH  22  23
ATOM     23  C   UNL     1       3.840   0.845  -0.366  1.00  0.00    -0.042 A 
ATOM     24  C   UNL     1       5.226   0.694  -0.523  1.00  0.00     0.005 A 
ATOM     25  C   UNL     1       3.353   1.458   0.799  1.00  0.00     0.005 A 
ATOM     26  C   UNL     1       6.104   1.117   0.478  1.00  0.00     0.021 A 
ATOM     27  C   UNL     1       4.231   1.881   1.800  1.00  0.00     0.021 A 
ATOM     28  C   UNL     1       5.602   1.705   1.637  1.00  0.00     0.041 A 
ATOM     29  Cl  UNL     1       6.685   2.225   2.869  1.00  0.00    -0.084 Cl
ENDBRANCH  22  23
ENDBRANCH  14  22
ENDBRANCH   1  11
TORSDOF 3
