REMARK SMILES CC1(C)S[C@@H]2[C@H](NC(=O)[C@H](N=[N+]=[N-])c3ccccc3)C(=O)N2[C@H]1C(=O)O
REMARK SMILES IDX 1 1 2 2 3 3 4 4 5 5 6 6 20 7 21 8 22 9 23 10 24 11 25 12
REMARK SMILES IDX 26 13 7 15 8 16 9 17 10 19 11 20 12 21 13 22 14 23 15 24
REMARK SMILES IDX 19 25 16 26 18 27 17 28
REMARK H PARENT 26 14 7 18
ROOT
ATOM      1  C   UNL     1      -5.000   0.195  -0.295  1.00  0.00     0.026 C 
ATOM      2  C   UNL     1      -3.628  -0.447  -0.043  1.00  0.00     0.044 C 
ATOM      3  C   UNL     1      -3.719  -1.966  -0.205  1.00  0.00     0.026 C 
ATOM      4  S   UNL     1      -2.445   0.212  -1.319  1.00  0.00    -0.125 SA
ATOM      5  C   UNL     1      -2.100   1.698  -0.291  1.00  0.00     0.176 C 
ATOM      6  C   UNL     1      -0.618   1.993   0.044  1.00  0.00     0.205 C 
ATOM      7  C   UNL     1      -0.955   1.320   1.407  1.00  0.00     0.250 C 
ATOM      8  O   UNL     1      -0.348   0.861   2.346  1.00  0.00    -0.272 OA
ATOM      9  N   UNL     1      -2.285   1.229   1.090  1.00  0.00    -0.311 N 
ATOM     10  C   UNL     1      -2.971  -0.047   1.293  1.00  0.00     0.211 C 
ENDROOT
BRANCH  10  11
ATOM     11  C   UNL     1      -3.956   0.063   2.449  1.00  0.00     0.327 C 
ATOM     12  O   UNL     1      -4.517   1.071   2.850  1.00  0.00    -0.250 OA
BRANCH  11  13
ATOM     13  O   UNL     1      -4.228  -1.132   3.015  1.00  0.00    -0.480 OA
ATOM     14  H   UNL     1      -4.835  -0.913   3.755  1.00  0.00     0.296 HD
ENDBRANCH  11  13
ENDBRANCH  10  11
BRANCH   6  15
ATOM     15  N   UNL     1       0.397   1.287  -0.784  1.00  0.00    -0.341 N 
ATOM     16  C   UNL     1       1.747   1.386  -0.503  1.00  0.00     0.234 C 
ATOM     17  O   UNL     1       2.181   2.252   0.252  1.00  0.00    -0.274 OA
ATOM     18  H   UNL     1       0.107   0.518  -1.386  1.00  0.00     0.164 HD
BRANCH  16  19
ATOM     19  C   UNL     1       2.628   0.375  -1.274  1.00  0.00     0.193 C 
BRANCH  19  20
ATOM     20  N   UNL     1       1.817  -0.826  -1.620  1.00  0.00    -0.076 NA
ATOM     21  N   UNL     1       1.632  -1.654  -0.707  1.00  0.00     0.002 N 
ATOM     22  N   UNL     1       1.426  -2.412   0.117  1.00  0.00    -0.003 NA
ENDBRANCH  19  20
BRANCH  19  23
ATOM     23  C   UNL     1       3.963   0.022  -0.636  1.00  0.00    -0.030 A 
ATOM     24  C   UNL     1       5.045  -0.321  -1.465  1.00  0.00     0.004 A 
ATOM     25  C   UNL     1       4.140  -0.049   0.755  1.00  0.00     0.004 A 
ATOM     26  C   UNL     1       6.274  -0.697  -0.919  1.00  0.00     0.000 A 
ATOM     27  C   UNL     1       5.370  -0.424   1.299  1.00  0.00     0.000 A 
ATOM     28  C   UNL     1       6.437  -0.746   0.462  1.00  0.00     0.000 A 
ENDBRANCH  19  23
ENDBRANCH  16  19
ENDBRANCH   6  15
TORSDOF 6
