REMARK SMILES CCOc1nc2cccc(C(=O)OCc3oc(=O)oc3C)c2n1Cc1ccc(-c2ccccc2-c2noc(=O)[nH]2)cc1
REMARK SMILES IDX 4 1 5 2 6 3 7 4 8 5 9 6 10 7 22 8 23 9 3 10 2 11 1 12 24 13
REMARK SMILES IDX 25 14 26 15 42 16 27 17 41 18 28 19 29 20 34 21 30 22 33 23
REMARK SMILES IDX 31 24 32 25 35 26 36 27 40 28 37 29 38 30 39 31 11 33 12 34
REMARK SMILES IDX 13 35 14 36 15 37 20 38 16 39 19 40 17 41 18 42 21 43
REMARK H PARENT 40 32
ROOT
ATOM      1  C   UNL     1       1.583  -2.829  -1.645  1.00  0.00     0.297 A 
ATOM      2  N   UNL     1       2.149  -3.936  -1.235  1.00  0.00    -0.195 NA
ATOM      3  C   UNL     1       2.738  -3.613  -0.043  1.00  0.00     0.093 A 
ATOM      4  C   UNL     1       3.462  -4.461   0.812  1.00  0.00     0.031 A 
ATOM      5  C   UNL     1       3.986  -3.954   2.001  1.00  0.00     0.003 A 
ATOM      6  C   UNL     1       3.802  -2.614   2.328  1.00  0.00     0.018 A 
ATOM      7  C   UNL     1       3.099  -1.741   1.475  1.00  0.00     0.086 A 
ATOM      8  C   UNL     1       2.549  -2.263   0.285  1.00  0.00     0.086 A 
ATOM      9  N   UNL     1       1.765  -1.796  -0.754  1.00  0.00    -0.289 N 
ENDROOT
BRANCH   1  10
ATOM     10  O   UNL     1       0.910  -2.673  -2.784  1.00  0.00    -0.465 OA
BRANCH  10  11
ATOM     11  C   UNL     1       0.788  -3.842  -3.593  1.00  0.00     0.229 C 
ATOM     12  C   UNL     1       2.003  -4.015  -4.489  1.00  0.00     0.049 C 
ENDBRANCH  10  11
ENDBRANCH   1  10
BRANCH   9  13
ATOM     13  C   UNL     1       1.231  -0.467  -0.986  1.00  0.00     0.163 C 
BRANCH  13  14
ATOM     14  C   UNL     1      -0.204  -0.325  -0.546  1.00  0.00    -0.028 A 
ATOM     15  C   UNL     1      -1.228  -0.257  -1.500  1.00  0.00     0.006 A 
ATOM     16  C   UNL     1      -0.541  -0.214   0.808  1.00  0.00     0.006 A 
ATOM     17  C   UNL     1      -2.554  -0.050  -1.109  1.00  0.00     0.009 A 
ATOM     18  C   UNL     1      -1.867  -0.009   1.197  1.00  0.00     0.009 A 
ATOM     19  C   UNL     1      -2.888   0.095   0.244  1.00  0.00    -0.018 A 
BRANCH  19  20
ATOM     20  C   UNL     1      -4.272   0.362   0.653  1.00  0.00    -0.007 A 
ATOM     21  C   UNL     1      -4.718   1.631   1.081  1.00  0.00     0.029 A 
ATOM     22  C   UNL     1      -5.195  -0.701   0.658  1.00  0.00     0.009 A 
ATOM     23  C   UNL     1      -6.046   1.816   1.501  1.00  0.00     0.013 A 
ATOM     24  C   UNL     1      -6.514  -0.512   1.077  1.00  0.00     0.001 A 
ATOM     25  C   UNL     1      -6.939   0.744   1.499  1.00  0.00     0.001 A 
BRANCH  21  26
ATOM     26  C   UNL     1      -3.826   2.803   1.082  1.00  0.00     0.183 C 
ATOM     27  N   UNL     1      -2.999   3.139   0.150  1.00  0.00    -0.055 NA
ATOM     28  N   UNL     1      -3.831   3.646   2.124  1.00  0.00    -0.270 N 
ATOM     29  O   UNL     1      -2.368   4.332   0.627  1.00  0.00    -0.296 OA
ATOM     30  C   UNL     1      -2.908   4.584   1.862  1.00  0.00     0.439 C 
ATOM     31  O   UNL     1      -2.592   5.502   2.602  1.00  0.00    -0.222 OA
ATOM     32  H   UNL     1      -4.327   3.581   2.995  1.00  0.00     0.175 HD
ENDBRANCH  21  26
ENDBRANCH  19  20
ENDBRANCH  13  14
ENDBRANCH   9  13
BRANCH   7  33
ATOM     33  C   UNL     1       2.965  -0.353   1.932  1.00  0.00     0.340 C 
ATOM     34  O   UNL     1       2.452  -0.049   2.995  1.00  0.00    -0.246 OA
BRANCH  33  35
ATOM     35  O   UNL     1       3.534   0.483   1.036  1.00  0.00    -0.454 OA
BRANCH  35  36
ATOM     36  C   UNL     1       3.456   1.871   1.392  1.00  0.00     0.312 C 
BRANCH  36  37
ATOM     37  C   UNL     1       3.465   2.669   0.134  1.00  0.00     0.187 C 
ATOM     38  C   UNL     1       2.510   3.365  -0.448  1.00  0.00     0.150 C 
ATOM     39  O   UNL     1       4.647   2.740  -0.579  1.00  0.00    -0.392 OA
ATOM     40  O   UNL     1       2.960   3.961  -1.611  1.00  0.00    -0.396 OA
ATOM     41  C   UNL     1       4.282   3.547  -1.645  1.00  0.00     0.519 C 
ATOM     42  O   UNL     1       5.059   3.865  -2.537  1.00  0.00    -0.202 OA
ATOM     43  C   UNL     1       1.087   3.580  -0.076  1.00  0.00     0.092 C 
ENDBRANCH  36  37
ENDBRANCH  35  36
ENDBRANCH  33  35
ENDBRANCH   7  33
TORSDOF 10
