REMARK SMILES CN1CCN(CCCCN2C(=O)CN(N=Cc3ccc(-c4ccc(Cl)cc4)o3)C2=O)CC1
REMARK SMILES IDX 9 1 8 2 7 3 6 4 5 5 2 6 3 7 32 8 4 9 31 10 1 11 10 12 11 13
REMARK SMILES IDX 29 14 12 15 13 16 14 17 30 18 15 19 16 20 17 21 18 22 28 23
REMARK SMILES IDX 19 24 20 25 21 26 22 27 27 28 23 29 26 30 24 31 25 32
REMARK H PARENT
ROOT
ATOM      1  C   UNL     1       1.500  -1.782   0.700  1.00  0.00     0.131 C 
ENDROOT
BRANCH   1   2
ATOM      2  C   UNL     1       2.501  -2.303  -0.333  1.00  0.00     0.023 C 
BRANCH   2   3
ATOM      3  C   UNL     1       3.789  -2.853   0.283  1.00  0.00     0.017 C 
BRANCH   3   4
ATOM      4  C   UNL     1       4.637  -1.901   1.143  1.00  0.00     0.084 C 
BRANCH   4   5
ATOM      5  N   UNL     1       5.424  -0.916   0.393  1.00  0.00    -0.301 NA
ATOM      6  N   UNL     1       6.772   1.409  -0.601  1.00  0.00    -0.304 NA
ATOM      7  C   UNL     1       5.349   1.563  -0.287  1.00  0.00     0.099 C 
ATOM      8  C   UNL     1       7.447   0.603   0.431  1.00  0.00     0.099 C 
ATOM      9  C   UNL     1       4.625   0.194  -0.168  1.00  0.00     0.100 C 
ATOM     10  C   UNL     1       6.529  -0.382   1.206  1.00  0.00     0.100 C 
ATOM     11  C   UNL     1       7.433   2.690  -0.807  1.00  0.00     0.105 C 
ENDBRANCH   4   5
ENDBRANCH   3   4
ENDBRANCH   2   3
ENDBRANCH   1   2
BRANCH   1  12
ATOM     12  N   UNL     1       0.307  -1.260   0.064  1.00  0.00    -0.261 N 
ATOM     13  C   UNL     1       0.201  -0.006  -0.461  1.00  0.00     0.252 C 
ATOM     14  C   UNL     1      -0.771  -2.021  -0.297  1.00  0.00     0.347 C 
ATOM     15  O   UNL     1       1.040   0.884  -0.390  1.00  0.00    -0.272 OA
ATOM     16  C   UNL     1      -1.114   0.113  -1.197  1.00  0.00     0.250 C 
ATOM     17  N   UNL     1      -1.719  -1.169  -0.905  1.00  0.00    -0.205 N 
ATOM     18  O   UNL     1      -0.884  -3.226  -0.119  1.00  0.00    -0.246 OA
BRANCH  17  19
ATOM     19  N   UNL     1      -2.609  -1.708  -1.792  1.00  0.00    -0.173 NA
ATOM     20  C   UNL     1      -3.871  -1.416  -1.654  1.00  0.00     0.180 C 
BRANCH  20  21
ATOM     21  C   UNL     1      -4.521  -0.658  -0.616  1.00  0.00     0.147 A 
ATOM     22  C   UNL     1      -4.180  -0.289   0.670  1.00  0.00     0.053 A 
ATOM     23  O   UNL     1      -5.778  -0.193  -0.894  1.00  0.00    -0.455 OA
ATOM     24  C   UNL     1      -5.272   0.452   1.188  1.00  0.00     0.051 A 
ATOM     25  C   UNL     1      -6.233   0.490   0.198  1.00  0.00     0.134 A 
BRANCH  25  26
ATOM     26  C   UNL     1      -7.569   1.074   0.089  1.00  0.00     0.017 A 
ATOM     27  C   UNL     1      -8.119   1.805   1.154  1.00  0.00     0.013 A 
ATOM     28  C   UNL     1      -8.338   0.922  -1.077  1.00  0.00     0.013 A 
ATOM     29  C   UNL     1      -9.398   2.365   1.058  1.00  0.00     0.021 A 
ATOM     30  C   UNL     1      -9.616   1.481  -1.177  1.00  0.00     0.021 A 
ATOM     31  C   UNL     1     -10.141   2.201  -0.107  1.00  0.00     0.041 A 
ATOM     32  Cl  UNL     1     -11.712   2.889  -0.226  1.00  0.00    -0.084 Cl
ENDBRANCH  25  26
ENDBRANCH  20  21
ENDBRANCH  17  19
ENDBRANCH   1  12
TORSDOF 8
