REMARK SMILES CC1(C)S[C@@H]2[C@H](NC(=O)[C@H](NC(=O)N3CCNC3=O)c3ccccc3)C(=O)N2[C@H]1C(=O)O
REMARK SMILES IDX 7 1 8 2 9 3 6 5 2 6 4 7 29 8 5 9 28 10 26 11 27 12 1 13 3 14
REMARK SMILES IDX 30 15 31 16 32 17 10 19 11 20 12 21 13 22 14 24 15 25 18 26
REMARK SMILES IDX 16 27 17 28 19 29 20 31 21 32 25 33 22 34 24 35 23 36
REMARK H PARENT 7 4 32 18 11 23 17 30
ROOT
ATOM      1  N   UNL     1       0.111   1.271  -0.699  1.00  0.00    -0.340 N 
ATOM      2  C   UNL     1      -0.770   0.697   0.193  1.00  0.00     0.248 C 
ATOM      3  O   UNL     1      -0.598   0.761   1.413  1.00  0.00    -0.272 OA
ATOM      4  H   UNL     1      -0.090   1.218  -1.693  1.00  0.00     0.164 HD
ENDROOT
BRANCH   1   5
ATOM      5  C   UNL     1       1.265   2.077  -0.225  1.00  0.00     0.205 C 
ATOM      6  C   UNL     1       4.426  -0.181  -0.488  1.00  0.00     0.044 C 
ATOM      7  S   UNL     1       2.680  -0.456   0.081  1.00  0.00    -0.125 SA
ATOM      8  C   UNL     1       4.344   1.162  -1.243  1.00  0.00     0.211 C 
ATOM      9  C   UNL     1       2.459   1.335   0.421  1.00  0.00     0.176 C 
ATOM     10  N   UNL     1       3.338   1.986  -0.569  1.00  0.00    -0.311 N 
ATOM     11  C   UNL     1       2.295   2.482  -1.303  1.00  0.00     0.250 C 
ATOM     12  O   UNL     1       2.253   2.917  -2.431  1.00  0.00    -0.272 OA
ATOM     13  C   UNL     1       5.330  -0.154   0.752  1.00  0.00     0.026 C 
ATOM     14  C   UNL     1       4.822  -1.338  -1.409  1.00  0.00     0.026 C 
BRANCH   8  15
ATOM     15  C   UNL     1       5.696   1.855  -1.380  1.00  0.00     0.327 C 
ATOM     16  O   UNL     1       6.681   1.381  -1.926  1.00  0.00    -0.250 OA
BRANCH  15  17
ATOM     17  O   UNL     1       5.769   3.076  -0.813  1.00  0.00    -0.480 OA
ATOM     18  H   UNL     1       6.674   3.393  -1.015  1.00  0.00     0.296 HD
ENDBRANCH  15  17
ENDBRANCH   8  15
ENDBRANCH   1   5
BRANCH   2  19
ATOM     19  C   UNL     1      -1.953  -0.072  -0.447  1.00  0.00     0.203 C 
BRANCH  19  20
ATOM     20  N   UNL     1      -3.045  -0.114   0.518  1.00  0.00    -0.322 N 
ATOM     21  C   UNL     1      -3.889   0.976   0.606  1.00  0.00     0.326 C 
ATOM     22  O   UNL     1      -3.774   1.917  -0.173  1.00  0.00    -0.248 OA
ATOM     23  H   UNL     1      -2.753  -0.483   1.411  1.00  0.00     0.166 HD
BRANCH  21  24
ATOM     24  N   UNL     1      -4.836   0.883   1.604  1.00  0.00    -0.244 N 
ATOM     25  C   UNL     1      -5.113  -0.295   2.407  1.00  0.00     0.154 C 
ATOM     26  C   UNL     1      -5.863   1.826   1.798  1.00  0.00     0.325 C 
ATOM     27  C   UNL     1      -6.188   0.155   3.378  1.00  0.00     0.140 C 
ATOM     28  N   UNL     1      -6.747   1.309   2.745  1.00  0.00    -0.336 N 
ATOM     29  O   UNL     1      -6.008   2.935   1.315  1.00  0.00    -0.248 OA
ATOM     30  H   UNL     1      -7.414   1.947   3.161  1.00  0.00     0.165 HD
ENDBRANCH  21  24
ENDBRANCH  19  20
BRANCH  19  31
ATOM     31  C   UNL     1      -1.581  -1.486  -0.854  1.00  0.00    -0.016 A 
ATOM     32  C   UNL     1      -2.115  -2.024  -2.037  1.00  0.00     0.006 A 
ATOM     33  C   UNL     1      -0.756  -2.301  -0.062  1.00  0.00     0.006 A 
ATOM     34  C   UNL     1      -1.809  -3.328  -2.431  1.00  0.00     0.000 A 
ATOM     35  C   UNL     1      -0.448  -3.603  -0.460  1.00  0.00     0.000 A 
ATOM     36  C   UNL     1      -0.972  -4.115  -1.644  1.00  0.00     0.000 A 
ENDBRANCH  19  31
ENDBRANCH   2  19
TORSDOF 7
