REMARK SMILES CCN(CCO)CCn1c(Cc2ccccc2)nc2c1c(=O)n(C)c(=O)n2C
REMARK SMILES IDX 3 1 2 2 1 3 4 4 5 5 6 6 7 8 8 9 9 10 10 11 20 12 18 13 19 14
REMARK SMILES IDX 21 15 27 16 22 17 23 18 25 19 26 20 28 21 24 22 11 23 12 24
REMARK SMILES IDX 13 25 17 26 14 27 16 28 15 29
REMARK H PARENT 6 7
ROOT
ATOM      1  N   UNL     1      -2.165  -0.503   1.324  1.00  0.00    -0.300 NA
ENDROOT
BRANCH   1   2
ATOM      2  C   UNL     1      -3.146   0.580   1.147  1.00  0.00     0.081 C 
ATOM      3  C   UNL     1      -3.967   0.796   2.413  1.00  0.00     0.021 C 
ENDBRANCH   1   2
BRANCH   1   4
ATOM      4  C   UNL     1      -2.598  -1.797   0.753  1.00  0.00     0.112 C 
BRANCH   4   5
ATOM      5  C   UNL     1      -3.842  -2.427   1.399  1.00  0.00     0.171 C 
BRANCH   5   6
ATOM      6  O   UNL     1      -5.036  -1.895   0.832  1.00  0.00    -0.395 OA
ATOM      7  H   UNL     1      -5.774  -2.236   1.366  1.00  0.00     0.210 HD
ENDBRANCH   5   6
ENDBRANCH   4   5
ENDBRANCH   1   4
BRANCH   1   8
ATOM      8  C   UNL     1      -0.828  -0.118   0.820  1.00  0.00     0.106 C 
BRANCH   8   9
ATOM      9  C   UNL     1      -0.713   0.207  -0.682  1.00  0.00     0.140 C 
BRANCH   9  10
ATOM     10  N   UNL     1       0.636   0.603  -1.061  1.00  0.00    -0.321 N 
ATOM     11  C   UNL     1       1.585  -0.166  -1.714  1.00  0.00     0.116 A 
ATOM     12  C   UNL     1       1.197   1.838  -0.851  1.00  0.00     0.152 A 
ATOM     13  N   UNL     1       2.710   0.516  -1.869  1.00  0.00    -0.215 NA
ATOM     14  C   UNL     1       2.463   1.741  -1.340  1.00  0.00     0.168 A 
ATOM     15  C   UNL     1       0.688   3.032  -0.265  1.00  0.00     0.282 C 
ATOM     16  N   UNL     1       3.348   2.791  -1.293  1.00  0.00    -0.279 N 
ATOM     17  O   UNL     1      -0.464   3.136   0.145  1.00  0.00    -0.267 OA
ATOM     18  N   UNL     1       1.631   4.064  -0.219  1.00  0.00    -0.261 N 
ATOM     19  C   UNL     1       2.945   3.998  -0.725  1.00  0.00     0.332 C 
ATOM     20  O   UNL     1       3.697   4.975  -0.665  1.00  0.00    -0.247 OA
ATOM     21  C   UNL     1       4.685   2.640  -1.837  1.00  0.00     0.157 C 
ATOM     22  C   UNL     1       1.230   5.330   0.363  1.00  0.00     0.159 C 
BRANCH  11  23
ATOM     23  C   UNL     1       1.371  -1.568  -2.206  1.00  0.00     0.111 C 
BRANCH  23  24
ATOM     24  C   UNL     1       1.286  -2.613  -1.115  1.00  0.00    -0.040 A 
ATOM     25  C   UNL     1       2.234  -2.662  -0.082  1.00  0.00     0.004 A 
ATOM     26  C   UNL     1       0.285  -3.595  -1.159  1.00  0.00     0.004 A 
ATOM     27  C   UNL     1       2.160  -3.647   0.904  1.00  0.00     0.000 A 
ATOM     28  C   UNL     1       0.216  -4.583  -0.175  1.00  0.00     0.000 A 
ATOM     29  C   UNL     1       1.150  -4.605   0.859  1.00  0.00     0.000 A 
ENDBRANCH  23  24
ENDBRANCH  11  23
ENDBRANCH   9  10
ENDBRANCH   8   9
ENDBRANCH   1   8
TORSDOF 9
