REMARK SMILES CCC1(CC)C(=O)NC(=O)NC1=O
REMARK SMILES IDX 3 1 6 2 7 3 8 4 9 5 10 6 11 7 12 8 13 9 2 12 1 13 4 14 5 15
REMARK H PARENT 8 10 11 11
ROOT
ATOM      1  C   UNL     1      -0.167  -0.044   0.125  1.00  0.00     0.128 C 
ATOM      2  C   UNL     1       0.374   0.392   1.482  1.00  0.00     0.243 C 
ATOM      3  O   UNL     1      -0.330   0.801   2.402  1.00  0.00    -0.273 OA
ATOM      4  N   UNL     1       1.720   0.233   1.668  1.00  0.00    -0.277 N 
ATOM      5  C   UNL     1       2.638   0.227   0.665  1.00  0.00     0.328 C 
ATOM      6  O   UNL     1       3.815   0.500   0.872  1.00  0.00    -0.248 OA
ATOM      7  N   UNL     1       2.176  -0.009  -0.592  1.00  0.00    -0.277 N 
ATOM      8  C   UNL     1       0.875   0.192  -0.961  1.00  0.00     0.243 C 
ATOM      9  O   UNL     1       0.604   0.496  -2.120  1.00  0.00    -0.273 OA
ATOM     10  H   UNL     1       2.072   0.538   2.566  1.00  0.00     0.174 HD
ATOM     11  H   UNL     1       2.856   0.156  -1.322  1.00  0.00     0.174 HD
ENDROOT
BRANCH   1  12
ATOM     12  C   UNL     1      -0.398  -1.581   0.248  1.00  0.00     0.023 C 
ATOM     13  C   UNL     1      -1.043  -2.250  -0.961  1.00  0.00     0.005 C 
ENDBRANCH   1  12
BRANCH   1  14
ATOM     14  C   UNL     1      -1.491   0.692  -0.199  1.00  0.00     0.023 C 
ATOM     15  C   UNL     1      -1.380   2.216  -0.243  1.00  0.00     0.005 C 
ENDBRANCH   1  14
TORSDOF 2
