REMARK SMILES Cc1c(-c2ccc(O)cc2)n(Cc2ccc(OCCN3CCCCCC3)cc2)c2ccc(O)cc12
REMARK SMILES IDX 17 1 16 2 13 3 14 4 28 5 15 6 27 7 12 8 11 9 2 10 3 11 35 12
REMARK SMILES IDX 29 13 34 14 30 15 32 16 31 17 1 18 4 19 5 20 10 21 6 22 9 23
REMARK SMILES IDX 7 24 8 25 33 27 18 29 19 30 20 31 21 32 22 33 26 35 25 36
REMARK SMILES IDX 24 37 23 38
REMARK H PARENT 8 26 33 28
REMARK Flexibility Score:  156.900
ROOT
ATOM      1  O   UNL     1       2.252   0.464   0.927  1.00  0.00    -0.492 OA
ENDROOT
BRANCH   1   2
ATOM      2  C   UNL     1       1.100   0.341   0.203  1.00  0.00     0.119 A 
ATOM      3  C   UNL     1      -1.271  -0.198  -1.229  1.00  0.00    -0.028 A 
ATOM      4  C   UNL     1      -0.593  -1.225  -0.560  1.00  0.00     0.009 A 
ATOM      5  C   UNL     1      -0.738   1.098  -1.179  1.00  0.00     0.009 A 
ATOM      6  C   UNL     1       0.580  -0.953   0.149  1.00  0.00     0.047 A 
ATOM      7  C   UNL     1       0.435   1.367  -0.465  1.00  0.00     0.047 A 
BRANCH   3   8
ATOM      8  C   UNL     1      -2.527  -0.469  -2.022  1.00  0.00     0.158 C 
BRANCH   8   9
ATOM      9  N   UNL     1      -3.598  -1.057  -1.217  1.00  0.00    -0.336 N 
ATOM     10  C   UNL     1      -5.323  -1.256   0.193  1.00  0.00    -0.017 A 
ATOM     11  C   UNL     1      -4.401  -0.360  -0.331  1.00  0.00     0.052 A 
ATOM     12  C   UNL     1      -5.066  -2.532  -0.399  1.00  0.00     0.007 A 
ATOM     13  C   UNL     1      -3.991  -2.384  -1.278  1.00  0.00     0.049 A 
ATOM     14  C   UNL     1      -5.662  -3.804  -0.261  1.00  0.00     0.056 A 
ATOM     15  C   UNL     1      -3.493  -3.468  -2.025  1.00  0.00     0.031 A 
ATOM     16  C   UNL     1      -5.170  -4.875  -1.004  1.00  0.00     0.116 A 
ATOM     17  C   UNL     1      -4.101  -4.718  -1.874  1.00  0.00     0.048 A 
ATOM     18  C   UNL     1      -6.380  -0.948   1.197  1.00  0.00     0.047 C 
BRANCH  11  19
ATOM     19  C   UNL     1      -4.240   1.060  -0.029  1.00  0.00    -0.001 A 
ATOM     20  C   UNL     1      -3.503   1.458   1.094  1.00  0.00     0.014 A 
ATOM     21  C   UNL     1      -4.824   2.031  -0.851  1.00  0.00     0.014 A 
ATOM     22  C   UNL     1      -3.336   2.814   1.385  1.00  0.00     0.047 A 
ATOM     23  C   UNL     1      -4.656   3.386  -0.562  1.00  0.00     0.047 A 
ATOM     24  C   UNL     1      -3.914   3.766   0.551  1.00  0.00     0.115 A 
BRANCH  24  25
ATOM     25  O   UNL     1      -3.776   5.100   0.796  1.00  0.00    -0.508 OA
ATOM     26  H   UNL     1      -3.283   5.212   1.626  1.00  0.00     0.293 HD
ENDBRANCH  24  25
ENDBRANCH  11  19
BRANCH  16  27
ATOM     27  O   UNL     1      -5.781  -6.085  -0.844  1.00  0.00    -0.508 OA
ATOM     28  H   UNL     1      -5.353  -6.726  -1.434  1.00  0.00     0.293 HD
ENDBRANCH  16  27
ENDBRANCH   8   9
ENDBRANCH   3   8
ENDBRANCH   1   2
BRANCH   1  29
ATOM     29  C   UNL     1       2.796   1.776   1.077  1.00  0.00     0.245 C 
BRANCH  29  30
ATOM     30  C   UNL     1       4.080   1.723   1.935  1.00  0.00     0.126 C 
BRANCH  30  31
ATOM     31  N   UNL     1       5.314   1.165   1.330  1.00  0.00    -0.300 NA
BRANCH  31  32
ATOM     32  C   UNL     1       5.163  -0.267   1.030  1.00  0.00     0.084 C 
BRANCH  32  33
ATOM     33  C   UNL     1       6.444  -1.073   1.250  1.00  0.00     0.016 CG0
ATOM     34  G   UNL     1       7.747  -0.504   0.698  1.00  0.00     0.000 G0
ENDBRANCH  32  33
ENDBRANCH  31  32
BRANCH  31  35
ATOM     35  C   UNL     1       5.704   1.923   0.130  1.00  0.00     0.084 C 
BRANCH  35  36
ATOM     36  C   UNL     1       7.169   1.761  -0.275  1.00  0.00     0.016 C 
BRANCH  36  37
ATOM     37  C   UNL     1       7.613   0.331  -0.569  1.00  0.00     0.001 C 
BRANCH  37  38
ATOM     38  C   UNL     1       7.747  -0.504   0.698  1.00  0.00     0.001 CG0
ATOM     39  G   UNL     1       6.444  -1.073   1.250  1.00  0.00     0.000 G0
ENDBRANCH  37  38
ENDBRANCH  36  37
ENDBRANCH  35  36
ENDBRANCH  31  35
ENDBRANCH  30  31
ENDBRANCH  29  30
ENDBRANCH   1  29
TORSDOF 9
