REMARK SMILES CCOC(=O)C(C)(CC)Oc1ccc(Cc2ccc(Cl)cc2)cc1
REMARK SMILES IDX 6 1 7 2 4 3 5 4 3 5 2 6 1 7 8 8 9 9 10 10 11 11 12 12 24 13
REMARK SMILES IDX 13 14 23 15 14 16 15 17 16 18 17 19 22 20 18 21 21 22 19 23
REMARK SMILES IDX 20 24
REMARK H PARENT
ROOT
ATOM      1  C   UNL     1       2.463  -1.097   0.511  1.00  0.00     0.202 C 
ATOM      2  C   UNL     1       2.460  -1.021  -1.030  1.00  0.00     0.069 C 
ENDROOT
BRANCH   1   3
ATOM      3  C   UNL     1       3.212   0.109   1.130  1.00  0.00     0.350 C 
ATOM      4  O   UNL     1       2.885   0.697   2.154  1.00  0.00    -0.247 OA
BRANCH   3   5
ATOM      5  O   UNL     1       4.332   0.413   0.408  1.00  0.00    -0.463 OA
BRANCH   5   6
ATOM      6  C   UNL     1       5.100   1.502   0.934  1.00  0.00     0.229 C 
ATOM      7  C   UNL     1       6.297   1.716   0.029  1.00  0.00     0.049 C 
ENDBRANCH   5   6
ENDBRANCH   3   5
ENDBRANCH   1   3
BRANCH   1   8
ATOM      8  C   UNL     1       3.258  -2.349   0.975  1.00  0.00     0.057 C 
ATOM      9  C   UNL     1       2.675  -3.680   0.510  1.00  0.00     0.009 C 
ENDBRANCH   1   8
BRANCH   1  10
ATOM     10  O   UNL     1       1.143  -1.265   1.071  1.00  0.00    -0.476 OA
BRANCH  10  11
ATOM     11  C   UNL     1       0.123  -0.560   0.500  1.00  0.00     0.121 A 
ATOM     12  C   UNL     1      -0.898  -1.298  -0.095  1.00  0.00     0.047 A 
ATOM     13  C   UNL     1       0.034   0.827   0.561  1.00  0.00     0.047 A 
ATOM     14  C   UNL     1      -1.986  -0.647  -0.680  1.00  0.00     0.008 A 
ATOM     15  C   UNL     1      -1.056   1.481  -0.021  1.00  0.00     0.008 A 
ATOM     16  C   UNL     1      -2.075   0.752  -0.652  1.00  0.00    -0.043 A 
BRANCH  16  17
ATOM     17  C   UNL     1      -3.252   1.462  -1.280  1.00  0.00     0.071 C 
BRANCH  17  18
ATOM     18  C   UNL     1      -4.577   1.184  -0.604  1.00  0.00    -0.044 A 
ATOM     19  C   UNL     1      -4.804   1.598   0.718  1.00  0.00     0.005 A 
ATOM     20  C   UNL     1      -5.600   0.513  -1.291  1.00  0.00     0.005 A 
ATOM     21  C   UNL     1      -6.028   1.343   1.341  1.00  0.00     0.021 A 
ATOM     22  C   UNL     1      -6.824   0.259  -0.668  1.00  0.00     0.021 A 
ATOM     23  C   UNL     1      -7.032   0.675   0.645  1.00  0.00     0.041 A 
ATOM     24  Cl  UNL     1      -8.541   0.361   1.411  1.00  0.00    -0.084 Cl
ENDBRANCH  17  18
ENDBRANCH  16  17
ENDBRANCH  10  11
ENDBRANCH   1  10
TORSDOF 8
