REMARK SMILES CCCCC(CC)COc1ccc(-c2nc(-c3ccc(OC)cc3)nc(-c3ccc(OCC(CC)CCCC)cc3O)n2)c(O)c1
REMARK SMILES IDX 14 1 43 2 26 3 25 4 16 5 15 6 13 7 10 8 46 9 11 10 44 11
REMARK SMILES IDX 12 12 9 13 8 14 5 15 4 16 3 17 2 18 1 19 6 20 7 21 45 22
REMARK SMILES IDX 27 24 41 25 28 26 40 27 29 28 30 29 42 30 31 32 32 33 33 34
REMARK SMILES IDX 34 35 35 36 36 37 37 38 38 39 39 40 17 41 18 42 24 43 19 44
REMARK SMILES IDX 23 45 20 46 21 47 22 48
REMARK H PARENT 45 23 42 31
ROOT
ATOM      1  C   UNL     1      -0.806  -2.050   0.483  1.00  0.00     0.167 A 
ATOM      2  N   UNL     1       0.405  -1.524   0.288  1.00  0.00    -0.208 NA
ATOM      3  C   UNL     1       1.356  -2.387  -0.071  1.00  0.00     0.167 A 
ATOM      4  N   UNL     1       1.175  -3.703  -0.222  1.00  0.00    -0.208 NA
ATOM      5  C   UNL     1      -0.066  -4.132   0.018  1.00  0.00     0.164 A 
ATOM      6  N   UNL     1      -1.088  -3.342   0.339  1.00  0.00    -0.208 NA
ENDROOT
BRANCH   1   7
ATOM      7  C   UNL     1      -1.908  -1.112   0.787  1.00  0.00     0.061 A 
ATOM      8  C   UNL     1      -4.019   0.748   1.239  1.00  0.00     0.123 A 
ATOM      9  C   UNL     1      -4.120  -0.558   1.710  1.00  0.00     0.093 A 
ATOM     10  C   UNL     1      -2.859   1.142   0.578  1.00  0.00     0.047 A 
ATOM     11  C   UNL     1      -3.077  -1.472   1.485  1.00  0.00     0.130 A 
ATOM     12  C   UNL     1      -1.825   0.228   0.353  1.00  0.00     0.020 A 
BRANCH   8  13
ATOM     13  O   UNL     1      -4.964   1.725   1.375  1.00  0.00    -0.493 OA
BRANCH  13  14
ATOM     14  C   UNL     1      -6.286   1.307   1.714  1.00  0.00     0.233 C 
BRANCH  14  15
ATOM     15  C   UNL     1      -7.267   2.481   1.509  1.00  0.00     0.026 C 
BRANCH  15  16
ATOM     16  C   UNL     1      -7.339   2.828   0.001  1.00  0.00     0.007 C 
BRANCH  16  17
ATOM     17  C   UNL     1      -8.467   3.803  -0.357  1.00  0.00     0.000 C 
BRANCH  17  18
ATOM     18  C   UNL     1      -8.585   3.980  -1.871  1.00  0.00    -0.003 C 
ATOM     19  C   UNL     1      -9.712   4.933  -2.237  1.00  0.00     0.004 C 
ENDBRANCH  17  18
ENDBRANCH  16  17
ENDBRANCH  15  16
BRANCH  15  20
ATOM     20  C   UNL     1      -6.896   3.722   2.349  1.00  0.00     0.003 C 
ATOM     21  C   UNL     1      -6.816   3.451   3.845  1.00  0.00     0.004 C 
ENDBRANCH  15  20
ENDBRANCH  14  15
ENDBRANCH  13  14
ENDBRANCH   8  13
BRANCH  11  22
ATOM     22  O   UNL     1      -3.213  -2.739   1.995  1.00  0.00    -0.507 OA
ATOM     23  H   UNL     1      -4.100  -2.849   2.372  1.00  0.00     0.293 HD
ENDBRANCH  11  22
ENDBRANCH   1   7
BRANCH   3  24
ATOM     24  C   UNL     1       2.695  -1.843  -0.373  1.00  0.00     0.061 A 
ATOM     25  C   UNL     1       3.659  -2.541  -1.125  1.00  0.00     0.130 A 
ATOM     26  C   UNL     1       3.060  -0.554   0.069  1.00  0.00     0.020 A 
ATOM     27  C   UNL     1       4.899  -1.977  -1.436  1.00  0.00     0.093 A 
ATOM     28  C   UNL     1       4.312   0.008  -0.227  1.00  0.00     0.047 A 
ATOM     29  C   UNL     1       5.236  -0.704  -0.983  1.00  0.00     0.123 A 
BRANCH  25  30
ATOM     30  O   UNL     1       3.455  -3.808  -1.612  1.00  0.00    -0.507 OA
ATOM     31  H   UNL     1       2.597  -4.126  -1.265  1.00  0.00     0.293 HD
ENDBRANCH  25  30
BRANCH  29  32
ATOM     32  O   UNL     1       6.466  -0.261  -1.376  1.00  0.00    -0.493 OA
BRANCH  32  33
ATOM     33  C   UNL     1       7.064   0.815  -0.652  1.00  0.00     0.233 C 
BRANCH  33  34
ATOM     34  C   UNL     1       6.770   2.190  -1.288  1.00  0.00     0.026 C 
BRANCH  34  35
ATOM     35  C   UNL     1       7.458   2.386  -2.657  1.00  0.00     0.003 C 
ATOM     36  C   UNL     1       6.898   1.517  -3.774  1.00  0.00     0.004 C 
ENDBRANCH  34  35
BRANCH  34  37
ATOM     37  C   UNL     1       7.145   3.332  -0.312  1.00  0.00     0.007 C 
BRANCH  37  38
ATOM     38  C   UNL     1       8.634   3.412   0.048  1.00  0.00     0.000 C 
BRANCH  38  39
ATOM     39  C   UNL     1       8.906   4.553   1.030  1.00  0.00    -0.003 C 
ATOM     40  C   UNL     1      10.379   4.613   1.407  1.00  0.00     0.004 C 
ENDBRANCH  38  39
ENDBRANCH  37  38
ENDBRANCH  34  37
ENDBRANCH  33  34
ENDBRANCH  32  33
ENDBRANCH  29  32
ENDBRANCH   3  24
BRANCH   5  41
ATOM     41  C   UNL     1      -0.336  -5.580  -0.101  1.00  0.00     0.020 A 
ATOM     42  C   UNL     1      -1.652  -6.081  -0.118  1.00  0.00     0.016 A 
ATOM     43  C   UNL     1       0.703  -6.522  -0.197  1.00  0.00     0.016 A 
ATOM     44  C   UNL     1      -1.923  -7.452  -0.237  1.00  0.00     0.047 A 
ATOM     45  C   UNL     1       0.435  -7.892  -0.313  1.00  0.00     0.047 A 
ATOM     46  C   UNL     1      -0.877  -8.365  -0.337  1.00  0.00     0.118 A 
BRANCH  46  47
ATOM     47  O   UNL     1      -0.995  -9.721  -0.461  1.00  0.00    -0.497 OA
ATOM     48  C   UNL     1      -2.315 -10.249  -0.506  1.00  0.00     0.278 C 
ENDBRANCH  46  47
ENDBRANCH   5  41
TORSDOF 20
