REMARK SMILES N=C(N)NC[C@H]1CC[C@H](C(=O)Oc2ccccc2C(=O)OCc2ccccc2)CC1
REMARK SMILES IDX 12 1 10 2 11 3 9 4 6 5 30 6 7 7 29 8 8 9 5 10 4 11 3 12 2 13
REMARK SMILES IDX 1 14 13 19 18 20 14 21 17 22 15 23 16 24 19 25 20 26 21 27
REMARK SMILES IDX 22 28 23 29 24 30 28 31 25 32 27 33 26 34
REMARK H PARENT 3 15 3 16 1 17 4 18
ROOT
ATOM      1  O   UNL     1      -0.860  -0.877  -2.059  1.00  0.00    -0.425 OA
ENDROOT
BRANCH   1   2
ATOM      2  C   UNL     1       0.305  -1.464  -1.575  1.00  0.00     0.314 C 
ATOM      3  O   UNL     1       0.459  -2.650  -1.309  1.00  0.00    -0.251 OA
BRANCH   2   4
ATOM      4  C   UNL     1       1.366  -0.388  -1.404  1.00  0.00     0.100 C 
ATOM      5  C   UNL     1       3.564  -0.242   0.705  1.00  0.00     0.008 C 
ATOM      6  C   UNL     1       2.507   0.856   0.476  1.00  0.00     0.006 C 
ATOM      7  C   UNL     1       3.423  -1.400  -0.306  1.00  0.00     0.006 C 
ATOM      8  C   UNL     1       1.193   0.279  -0.034  1.00  0.00     0.016 C 
ATOM      9  C   UNL     1       2.777  -0.961  -1.618  1.00  0.00     0.016 C 
BRANCH   5  10
ATOM     10  C   UNL     1       4.996   0.329   0.689  1.00  0.00     0.119 C 
BRANCH  10  11
ATOM     11  N   UNL     1       5.226   1.226   1.812  1.00  0.00    -0.356 N 
ATOM     12  N   UNL     1       5.250   3.162   2.914  1.00  0.00    -0.370 N 
ATOM     13  C   UNL     1       5.130   2.570   1.710  1.00  0.00     0.185 C 
ATOM     14  N   UNL     1       4.962   3.223   0.621  1.00  0.00    -0.270 NA
ATOM     15  H   UNL     1       5.938   2.706   3.502  1.00  0.00     0.159 HD
ATOM     16  H   UNL     1       5.426   4.157   2.874  1.00  0.00     0.159 HD
ATOM     17  H   UNL     1       4.906   4.221   0.822  1.00  0.00     0.191 HD
ATOM     18  H   UNL     1       4.917   0.854   2.701  1.00  0.00     0.163 HD
ENDBRANCH  10  11
ENDBRANCH   5  10
ENDBRANCH   2   4
ENDBRANCH   1   2
BRANCH   1  19
ATOM     19  C   UNL     1      -1.873  -1.808  -2.307  1.00  0.00     0.145 A 
ATOM     20  C   UNL     1      -2.755  -2.257  -1.316  1.00  0.00     0.102 A 
ATOM     21  C   UNL     1      -1.990  -2.255  -3.630  1.00  0.00     0.048 A 
ATOM     22  C   UNL     1      -3.731  -3.204  -1.669  1.00  0.00     0.019 A 
ATOM     23  C   UNL     1      -2.971  -3.187  -3.964  1.00  0.00     0.004 A 
ATOM     24  C   UNL     1      -3.837  -3.666  -2.984  1.00  0.00     0.001 A 
BRANCH  20  25
ATOM     25  C   UNL     1      -2.743  -1.806   0.099  1.00  0.00     0.342 C 
ATOM     26  O   UNL     1      -3.239  -2.458   1.006  1.00  0.00    -0.246 OA
BRANCH  25  27
ATOM     27  O   UNL     1      -2.195  -0.574   0.215  1.00  0.00    -0.457 OA
BRANCH  27  28
ATOM     28  C   UNL     1      -2.275   0.018   1.517  1.00  0.00     0.269 C 
BRANCH  28  29
ATOM     29  C   UNL     1      -3.452   0.956   1.567  1.00  0.00    -0.011 A 
ATOM     30  C   UNL     1      -3.355   2.250   1.035  1.00  0.00     0.007 A 
ATOM     31  C   UNL     1      -4.674   0.534   2.109  1.00  0.00     0.007 A 
ATOM     32  C   UNL     1      -4.453   3.111   1.066  1.00  0.00     0.000 A 
ATOM     33  C   UNL     1      -5.771   1.396   2.138  1.00  0.00     0.000 A 
ATOM     34  C   UNL     1      -5.659   2.685   1.619  1.00  0.00     0.000 A 
ENDBRANCH  28  29
ENDBRANCH  27  28
ENDBRANCH  25  27
ENDBRANCH  20  25
ENDBRANCH   1  19
TORSDOF 9
