REMARK SMILES CC(COc1ccccc1Cc1ccccc1)N1CCCCC1
REMARK SMILES IDX 4 1 3 2 2 3 1 4 18 5 19 6 23 7 20 8 22 9 21 10 5 11 6 12
REMARK SMILES IDX 10 13 7 14 9 15 8 16 11 17 12 18 13 19 17 20 14 21 16 22
REMARK SMILES IDX 15 23
REMARK H PARENT
ROOT
ATOM      1  O   UNL     1      -0.046  -0.045   0.952  1.00  0.00    -0.492 OA
ENDROOT
BRANCH   1   2
ATOM      2  C   UNL     1       0.927   0.354   1.917  1.00  0.00     0.248 C 
BRANCH   2   3
ATOM      3  C   UNL     1       2.360  -0.122   1.557  1.00  0.00     0.091 C 
ATOM      4  C   UNL     1       3.315   0.247   2.701  1.00  0.00     0.028 C 
BRANCH   3   5
ATOM      5  N   UNL     1       2.940   0.377   0.289  1.00  0.00    -0.297 NA
ATOM      6  C   UNL     1       2.615  -0.490  -0.856  1.00  0.00     0.085 C 
ATOM      7  C   UNL     1       2.705   1.789  -0.003  1.00  0.00     0.085 C 
ATOM      8  C   UNL     1       2.748   0.200  -2.220  1.00  0.00     0.016 C 
ATOM      9  C   UNL     1       3.658   2.264  -1.106  1.00  0.00     0.016 C 
ATOM     10  C   UNL     1       3.868   1.230  -2.214  1.00  0.00     0.003 C 
ENDBRANCH   3   5
ENDBRANCH   2   3
ENDBRANCH   1   2
BRANCH   1  11
ATOM     11  C   UNL     1      -0.665  -1.260   1.071  1.00  0.00     0.122 A 
ATOM     12  C   UNL     1      -0.358  -2.224   2.036  1.00  0.00     0.047 A 
ATOM     13  C   UNL     1      -1.670  -1.529   0.121  1.00  0.00    -0.002 A 
ATOM     14  C   UNL     1      -1.048  -3.439   2.073  1.00  0.00     0.004 A 
ATOM     15  C   UNL     1      -2.360  -2.754   0.176  1.00  0.00     0.008 A 
ATOM     16  C   UNL     1      -2.050  -3.703   1.147  1.00  0.00     0.001 A 
BRANCH  13  17
ATOM     17  C   UNL     1      -2.043  -0.527  -0.954  1.00  0.00     0.075 C 
BRANCH  17  18
ATOM     18  C   UNL     1      -3.279   0.282  -0.630  1.00  0.00    -0.043 A 
ATOM     19  C   UNL     1      -4.517  -0.041  -1.203  1.00  0.00     0.004 A 
ATOM     20  C   UNL     1      -3.206   1.364   0.260  1.00  0.00     0.004 A 
ATOM     21  C   UNL     1      -5.656   0.705  -0.896  1.00  0.00     0.000 A 
ATOM     22  C   UNL     1      -4.346   2.109   0.566  1.00  0.00     0.000 A 
ATOM     23  C   UNL     1      -5.571   1.780  -0.013  1.00  0.00     0.000 A 
ENDBRANCH  17  18
ENDBRANCH  13  17
ENDBRANCH   1  11
TORSDOF 6
