REMARK SMILES CCOC(=O)c1ccc(N)cc1
REMARK SMILES IDX 4 1 5 2 3 3 2 4 1 5 6 6 7 7 12 8 8 9 11 10 9 11 10 12
REMARK H PARENT 10 13 10 14
ROOT
ATOM      1  C   UNL     1      -1.099   0.771  -0.248  1.00  0.00     0.338 C 
ATOM      2  O   UNL     1      -1.489   1.902  -0.003  1.00  0.00    -0.246 OA
ENDROOT
BRANCH   1   3
ATOM      3  O   UNL     1      -1.880  -0.284  -0.588  1.00  0.00    -0.462 OA
BRANCH   3   4
ATOM      4  C   UNL     1      -3.288  -0.018  -0.669  1.00  0.00     0.230 C 
ATOM      5  C   UNL     1      -3.931  -0.184   0.695  1.00  0.00     0.049 C 
ENDBRANCH   3   4
ENDBRANCH   1   3
BRANCH   1   6
ATOM      6  C   UNL     1       0.333   0.369  -0.200  1.00  0.00     0.060 A 
ATOM      7  C   UNL     1       0.762  -0.932  -0.489  1.00  0.00     0.018 A 
ATOM      8  C   UNL     1       1.284   1.342   0.129  1.00  0.00     0.018 A 
ATOM      9  C   UNL     1       2.123  -1.252  -0.431  1.00  0.00     0.026 A 
ATOM     10  C   UNL     1       2.642   1.012   0.184  1.00  0.00     0.026 A 
ATOM     11  C   UNL     1       3.068  -0.299  -0.045  1.00  0.00     0.031 A 
BRANCH  11  12
ATOM     12  N   UNL     1       4.433  -0.595  -0.107  1.00  0.00    -0.399 N 
ATOM     13  H   UNL     1       5.015   0.013   0.461  1.00  0.00     0.156 HD
ATOM     14  H   UNL     1       4.651  -1.577   0.034  1.00  0.00     0.156 HD
ENDBRANCH  11  12
ENDBRANCH   1   6
TORSDOF 4
