REMARK SMILES CCCCCCCCCCCC[N+](C)(C)Cc1ccccc1
REMARK SMILES IDX 8 1 7 2 6 3 5 4 4 5 3 6 2 7 1 8 9 9 10 10 11 11 12 12 13 13
REMARK SMILES IDX 14 14 15 15 16 16 17 17 18 18 22 19 19 20 21 21 20 22
REMARK H PARENT
ROOT
ATOM      1  C   UNL     1       0.396  -0.178   1.890  1.00  0.00     0.000 C 
ENDROOT
BRANCH   1   2
ATOM      2  C   UNL     1       1.645   0.174   1.076  1.00  0.00     0.000 C 
BRANCH   2   3
ATOM      3  C   UNL     1       2.905  -0.547   1.562  1.00  0.00    -0.000 C 
BRANCH   3   4
ATOM      4  C   UNL     1       4.186  -0.050   0.885  1.00  0.00    -0.000 C 
BRANCH   4   5
ATOM      5  C   UNL     1       4.221  -0.329  -0.620  1.00  0.00    -0.000 C 
BRANCH   5   6
ATOM      6  C   UNL     1       5.586  -0.048  -1.256  1.00  0.00    -0.000 C 
BRANCH   6   7
ATOM      7  C   UNL     1       5.986   1.427  -1.209  1.00  0.00    -0.003 C 
ATOM      8  C   UNL     1       7.293   1.672  -1.948  1.00  0.00     0.004 C 
ENDBRANCH   6   7
ENDBRANCH   5   6
ENDBRANCH   4   5
ENDBRANCH   3   4
ENDBRANCH   2   3
ENDBRANCH   1   2
BRANCH   1   9
ATOM      9  C   UNL     1      -0.006  -1.655   1.887  1.00  0.00     0.000 C 
BRANCH   9  10
ATOM     10  C   UNL     1      -0.212  -2.288   0.508  1.00  0.00     0.006 C 
BRANCH  10  11
ATOM     11  C   UNL     1      -1.267  -1.631  -0.393  1.00  0.00     0.061 C 
BRANCH  11  12
ATOM     12  C   UNL     1      -2.649  -1.574   0.263  1.00  0.00     0.263 C 
BRANCH  12  13
ATOM     13  N   UNL     1      -3.798  -1.236  -0.708  1.00  0.00    -0.325 N 
ATOM     14  C   UNL     1      -3.906  -2.288  -1.814  1.00  0.00     0.334 C 
ATOM     15  C   UNL     1      -5.101  -1.297   0.096  1.00  0.00     0.334 C 
BRANCH  13  16
ATOM     16  C   UNL     1      -3.649   0.150  -1.378  1.00  0.00     0.300 C 
BRANCH  16  17
ATOM     17  C   UNL     1      -3.676   1.362  -0.479  1.00  0.00     0.006 A 
ATOM     18  C   UNL     1      -2.485   1.944  -0.020  1.00  0.00     0.009 A 
ATOM     19  C   UNL     1      -4.895   1.954  -0.107  1.00  0.00     0.009 A 
ATOM     20  C   UNL     1      -2.512   3.060   0.818  1.00  0.00     0.001 A 
ATOM     21  C   UNL     1      -4.920   3.070   0.731  1.00  0.00     0.001 A 
ATOM     22  C   UNL     1      -3.729   3.618   1.198  1.00  0.00     0.000 A 
ENDBRANCH  16  17
ENDBRANCH  13  16
ENDBRANCH  12  13
ENDBRANCH  11  12
ENDBRANCH  10  11
ENDBRANCH   9  10
ENDBRANCH   1   9
TORSDOF 13
