REMARK SMILES CCN(CC)C(=O)C1CN2CCc3cc(OC)c(OC)cc3C2CC1OC(C)=O
REMARK SMILES IDX 8 1 9 2 10 3 11 4 12 5 13 6 22 7 21 8 18 9 15 10 14 11 23 12
REMARK SMILES IDX 24 13 25 14 6 15 3 16 7 17 2 18 1 19 4 20 5 21 26 22 27 23
REMARK SMILES IDX 29 24 28 25 19 26 20 27 16 28 17 29
REMARK H PARENT
ROOT
ATOM      1  C   UNL     1      -2.180   0.215  -0.552  1.00  0.00     0.133 C 
ATOM      2  C   UNL     1      -1.451   1.244   0.320  1.00  0.00     0.102 C 
ATOM      3  N   UNL     1      -0.081   0.876   0.693  1.00  0.00    -0.295 NA
ATOM      4  C   UNL     1       0.495   1.857   1.634  1.00  0.00     0.090 C 
ATOM      5  C   UNL     1       1.950   2.289   1.389  1.00  0.00     0.051 C 
ATOM      6  C   UNL     1       2.788   1.135   0.918  1.00  0.00    -0.038 A 
ATOM      7  C   UNL     1       2.207   0.244  -0.001  1.00  0.00    -0.023 A 
ATOM      8  C   UNL     1       2.980  -0.830  -0.468  1.00  0.00     0.056 A 
ATOM      9  C   UNL     1       4.300  -1.016  -0.031  1.00  0.00     0.161 A 
ATOM     10  C   UNL     1       4.874  -0.105   0.876  1.00  0.00     0.161 A 
ATOM     11  C   UNL     1       4.113   0.970   1.342  1.00  0.00     0.054 A 
ATOM     12  C   UNL     1       0.779   0.558  -0.462  1.00  0.00     0.091 C 
ATOM     13  C   UNL     1       0.136  -0.573  -1.284  1.00  0.00     0.070 C 
ATOM     14  C   UNL     1      -1.296  -0.246  -1.717  1.00  0.00     0.192 C 
ENDROOT
BRANCH   1  15
ATOM     15  C   UNL     1      -2.700  -0.965   0.270  1.00  0.00     0.230 C 
ATOM     16  N   UNL     1      -3.827  -0.771   1.072  1.00  0.00    -0.343 N 
ATOM     17  O   UNL     1      -2.132  -2.059   0.230  1.00  0.00    -0.274 OA
BRANCH  16  18
ATOM     18  C   UNL     1      -4.712   0.396   1.035  1.00  0.00     0.116 C 
ATOM     19  C   UNL     1      -5.838   0.217   0.027  1.00  0.00     0.027 C 
ENDBRANCH  16  18
BRANCH  16  20
ATOM     20  C   UNL     1      -4.247  -1.882   1.931  1.00  0.00     0.116 C 
ATOM     21  C   UNL     1      -3.551  -1.829   3.282  1.00  0.00     0.027 C 
ENDBRANCH  16  20
ENDBRANCH   1  15
BRANCH  14  22
ATOM     22  O   UNL     1      -1.269   0.841  -2.682  1.00  0.00    -0.462 OA
BRANCH  22  23
ATOM     23  C   UNL     1      -1.029   0.502  -3.978  1.00  0.00     0.302 C 
ATOM     24  O   UNL     1      -0.837  -0.630  -4.396  1.00  0.00    -0.253 OA
ATOM     25  C   UNL     1      -1.028   1.731  -4.833  1.00  0.00     0.139 C 
ENDBRANCH  22  23
ENDBRANCH  14  22
BRANCH   9  26
ATOM     26  O   UNL     1       5.113  -2.043  -0.448  1.00  0.00    -0.493 OA
ATOM     27  C   UNL     1       4.510  -3.102  -1.178  1.00  0.00     0.278 C 
ENDBRANCH   9  26
BRANCH  10  28
ATOM     28  O   UNL     1       6.175  -0.351   1.238  1.00  0.00    -0.493 OA
ATOM     29  C   UNL     1       6.766   0.512   2.198  1.00  0.00     0.278 C 
ENDBRANCH  10  28
TORSDOF 7
