REMARK SMILES O=c1c(OCc2ccccc2)c(-c2ccc(OCc3ccccc3)c(OCc3ccccc3)c2)oc2cc(OCc3ccccc3)cc(OCc3ccccc3)c12
REMARK SMILES IDX 1 1 2 2 3 3 12 4 35 5 36 6 37 7 38 8 47 9 48 10 57 11 4 12
REMARK SMILES IDX 5 13 6 14 7 15 11 16 8 17 10 18 9 19 13 20 34 21 14 22 25 23
REMARK SMILES IDX 15 24 16 25 26 26 27 27 28 28 29 29 33 30 30 31 32 32 31 33
REMARK SMILES IDX 17 34 18 35 19 36 20 37 24 38 21 39 23 40 22 41 49 42 50 43
REMARK SMILES IDX 51 44 52 45 56 46 53 47 55 48 54 49 39 50 40 51 41 52 42 53
REMARK SMILES IDX 46 54 43 55 45 56 44 57
REMARK H PARENT
ROOT
ATOM      1  O   UNL     1      -2.114  -2.466   1.044  1.00  0.00    -0.285 OA
ATOM      2  C   UNL     1      -1.725  -1.362   0.679  1.00  0.00     0.239 C 
ATOM      3  C   UNL     1      -0.297  -1.150   0.302  1.00  0.00     0.211 C 
ATOM      4  C   UNL     1       0.128   0.115   0.127  1.00  0.00     0.180 C 
ATOM      5  O   UNL     1      -0.674   1.235   0.201  1.00  0.00    -0.452 OA
ATOM      6  C   UNL     1      -2.018   1.064   0.408  1.00  0.00     0.146 A 
ATOM      7  C   UNL     1      -2.786   2.229   0.391  1.00  0.00     0.094 A 
ATOM      8  C   UNL     1      -4.167   2.165   0.559  1.00  0.00     0.127 A 
ATOM      9  C   UNL     1      -4.777   0.921   0.732  1.00  0.00     0.094 A 
ATOM     10  C   UNL     1      -4.009  -0.255   0.775  1.00  0.00     0.138 A 
ATOM     11  C   UNL     1      -2.614  -0.178   0.614  1.00  0.00     0.111 A 
ENDROOT
BRANCH   3  12
ATOM     12  O   UNL     1       0.565  -2.236   0.217  1.00  0.00    -0.481 OA
BRANCH  12  13
ATOM     13  C   UNL     1       0.212  -3.156  -0.822  1.00  0.00     0.265 C 
BRANCH  13  14
ATOM     14  C   UNL     1       0.617  -2.626  -2.177  1.00  0.00    -0.011 A 
ATOM     15  C   UNL     1      -0.351  -2.221  -3.105  1.00  0.00     0.007 A 
ATOM     16  C   UNL     1       1.974  -2.502  -2.507  1.00  0.00     0.007 A 
ATOM     17  C   UNL     1       0.032  -1.707  -4.344  1.00  0.00     0.000 A 
ATOM     18  C   UNL     1       2.356  -1.989  -3.748  1.00  0.00     0.000 A 
ATOM     19  C   UNL     1       1.383  -1.593  -4.666  1.00  0.00     0.000 A 
ENDBRANCH  13  14
ENDBRANCH  12  13
ENDBRANCH   3  12
BRANCH   4  20
ATOM     20  C   UNL     1       1.522   0.428  -0.225  1.00  0.00     0.025 A 
ATOM     21  C   UNL     1       2.575   0.090   0.628  1.00  0.00     0.062 A 
ATOM     22  C   UNL     1       1.813   1.058  -1.442  1.00  0.00     0.016 A 
ATOM     23  C   UNL     1       3.894   0.331   0.238  1.00  0.00     0.162 A 
ATOM     24  C   UNL     1       3.138   1.316  -1.819  1.00  0.00     0.051 A 
ATOM     25  C   UNL     1       4.193   0.953  -0.980  1.00  0.00     0.161 A 
BRANCH  23  26
ATOM     26  O   UNL     1       4.896  -0.022   1.107  1.00  0.00    -0.485 OA
BRANCH  26  27
ATOM     27  C   UNL     1       5.341  -1.361   0.839  1.00  0.00     0.265 C 
BRANCH  27  28
ATOM     28  C   UNL     1       5.051  -2.220   2.046  1.00  0.00    -0.011 A 
ATOM     29  C   UNL     1       5.889  -2.170   3.169  1.00  0.00     0.007 A 
ATOM     30  C   UNL     1       3.915  -3.042   2.083  1.00  0.00     0.007 A 
ATOM     31  C   UNL     1       5.603  -2.933   4.302  1.00  0.00     0.000 A 
ATOM     32  C   UNL     1       3.631  -3.808   3.217  1.00  0.00     0.000 A 
ATOM     33  C   UNL     1       4.474  -3.753   4.324  1.00  0.00     0.000 A 
ENDBRANCH  27  28
ENDBRANCH  26  27
ENDBRANCH  23  26
BRANCH  25  34
ATOM     34  O   UNL     1       5.522   1.136  -1.255  1.00  0.00    -0.485 OA
BRANCH  34  35
ATOM     35  C   UNL     1       5.850   1.871  -2.436  1.00  0.00     0.265 C 
BRANCH  35  36
ATOM     36  C   UNL     1       7.338   2.131  -2.477  1.00  0.00    -0.011 A 
ATOM     37  C   UNL     1       8.044   2.031  -3.685  1.00  0.00     0.007 A 
ATOM     38  C   UNL     1       8.030   2.536  -1.326  1.00  0.00     0.007 A 
ATOM     39  C   UNL     1       9.411   2.316  -3.735  1.00  0.00     0.000 A 
ATOM     40  C   UNL     1       9.397   2.811  -1.373  1.00  0.00     0.000 A 
ATOM     41  C   UNL     1      10.088   2.700  -2.578  1.00  0.00     0.000 A 
ENDBRANCH  35  36
ENDBRANCH  34  35
ENDBRANCH  25  34
ENDBRANCH   4  20
BRANCH  10  42
ATOM     42  O   UNL     1      -4.590  -1.492   0.877  1.00  0.00    -0.488 OA
BRANCH  42  43
ATOM     43  C   UNL     1      -5.739  -1.591   1.724  1.00  0.00     0.265 C 
BRANCH  43  44
ATOM     44  C   UNL     1      -6.072  -3.047   1.937  1.00  0.00    -0.011 A 
ATOM     45  C   UNL     1      -5.882  -3.656   3.186  1.00  0.00     0.007 A 
ATOM     46  C   UNL     1      -6.587  -3.814   0.881  1.00  0.00     0.007 A 
ATOM     47  C   UNL     1      -6.205  -5.001   3.376  1.00  0.00     0.000 A 
ATOM     48  C   UNL     1      -6.923  -5.155   1.075  1.00  0.00     0.000 A 
ATOM     49  C   UNL     1      -6.732  -5.748   2.322  1.00  0.00     0.000 A 
ENDBRANCH  43  44
ENDBRANCH  42  43
ENDBRANCH  10  42
BRANCH   8  50
ATOM     50  O   UNL     1      -4.804   3.374   0.512  1.00  0.00    -0.489 OA
BRANCH  50  51
ATOM     51  C   UNL     1      -6.211   3.384   0.739  1.00  0.00     0.265 C 
BRANCH  51  52
ATOM     52  C   UNL     1      -6.700   4.809   0.665  1.00  0.00    -0.011 A 
ATOM     53  C   UNL     1      -6.687   5.627   1.805  1.00  0.00     0.007 A 
ATOM     54  C   UNL     1      -7.155   5.343  -0.549  1.00  0.00     0.007 A 
ATOM     55  C   UNL     1      -7.137   6.946   1.731  1.00  0.00     0.000 A 
ATOM     56  C   UNL     1      -7.612   6.661  -0.617  1.00  0.00     0.000 A 
ATOM     57  C   UNL     1      -7.602   7.462   0.522  1.00  0.00     0.000 A 
ENDBRANCH  51  52
ENDBRANCH  50  51
ENDBRANCH   8  50
TORSDOF 16
