REMARK SMILES CNCC12CCC(c3ccccc31)c1ccccc12
REMARK SMILES IDX 1 1 2 2 3 4 4 5 5 6 13 7 19 8 6 9 12 10 8 11 14 12 18 13
REMARK SMILES IDX 7 14 11 15 9 16 15 17 17 18 10 19 16 20
REMARK H PARENT 2 3
ROOT
ATOM      1  C   UNL     1      -3.710   2.204  -0.330  1.00  0.00     0.101 C 
ATOM      2  N   UNL     1      -2.763   1.122  -0.562  1.00  0.00    -0.319 NA
ATOM      3  H   UNL     1      -2.717   0.926  -1.561  1.00  0.00     0.122 HD
ENDROOT
BRANCH   2   4
ATOM      4  C   UNL     1      -1.421   1.471  -0.060  1.00  0.00     0.097 C 
BRANCH   4   5
ATOM      5  C   UNL     1      -0.319   0.384  -0.250  1.00  0.00     0.033 C 
ATOM      6  C   UNL     1      -0.171  -0.013  -1.764  1.00  0.00     0.019 C 
ATOM      7  C   UNL     1       1.097   0.878   0.163  1.00  0.00    -0.032 A 
ATOM      8  C   UNL     1      -0.551  -0.955   0.493  1.00  0.00    -0.032 A 
ATOM      9  C   UNL     1       0.964  -1.061  -1.967  1.00  0.00     0.014 C 
ATOM     10  C   UNL     1       1.433   2.118   0.703  1.00  0.00     0.005 A 
ATOM     11  C   UNL     1       2.118  -0.091  -0.042  1.00  0.00    -0.036 A 
ATOM     12  C   UNL     1       0.488  -1.906   0.286  1.00  0.00    -0.036 A 
ATOM     13  C   UNL     1      -1.625  -1.286   1.314  1.00  0.00     0.005 A 
ATOM     14  C   UNL     1       1.616  -1.411  -0.611  1.00  0.00     0.050 C 
ATOM     15  C   UNL     1       2.767   2.389   1.020  1.00  0.00     0.000 A 
ATOM     16  C   UNL     1       3.444   0.181   0.277  1.00  0.00     0.004 A 
ATOM     17  C   UNL     1       0.445  -3.160   0.886  1.00  0.00     0.004 A 
ATOM     18  C   UNL     1      -1.666  -2.549   1.912  1.00  0.00     0.000 A 
ATOM     19  C   UNL     1       3.765   1.430   0.807  1.00  0.00     0.000 A 
ATOM     20  C   UNL     1      -0.641  -3.479   1.700  1.00  0.00     0.000 A 
ENDBRANCH   4   5
ENDBRANCH   2   4
TORSDOF 2
