REMARK SMILES CC[N+](C)(CC)CCN(C)C(=O)C(O)(c1ccccc1)c1ccccc1
REMARK SMILES IDX 8 1 7 2 3 3 4 4 2 5 1 6 5 7 6 8 9 9 10 10 11 11 12 12 13 13
REMARK SMILES IDX 14 14 15 16 16 17 20 18 17 19 19 20 18 21 21 22 22 23 26 24
REMARK SMILES IDX 23 25 25 26 24 27
REMARK H PARENT 14 15
ROOT
ATOM      1  C   UNL     1      -1.331   1.072   0.196  1.00  0.00     0.180 C 
ENDROOT
BRANCH   1   2
ATOM      2  C   UNL     1      -2.257  -0.132   0.488  1.00  0.00     0.285 C 
BRANCH   2   3
ATOM      3  N   UNL     1      -3.586  -0.143  -0.313  1.00  0.00    -0.325 N 
ATOM      4  C   UNL     1      -3.271  -0.427  -1.798  1.00  0.00     0.334 C 
BRANCH   3   5
ATOM      5  C   UNL     1      -4.331   1.212  -0.260  1.00  0.00     0.260 C 
ATOM      6  C   UNL     1      -4.707   1.648   1.147  1.00  0.00     0.071 C 
ENDBRANCH   3   5
BRANCH   3   7
ATOM      7  C   UNL     1      -4.523  -1.252   0.229  1.00  0.00     0.260 C 
ATOM      8  C   UNL     1      -3.998  -2.667   0.035  1.00  0.00     0.071 C 
ENDBRANCH   3   7
ENDBRANCH   2   3
ENDBRANCH   1   2
BRANCH   1   9
ATOM      9  N   UNL     1       0.088   0.737   0.336  1.00  0.00    -0.337 N 
ATOM     10  C   UNL     1       0.787   1.285   1.490  1.00  0.00     0.147 C 
BRANCH   9  11
ATOM     11  C   UNL     1       0.677   0.044  -0.724  1.00  0.00     0.263 C 
ATOM     12  O   UNL     1      -0.079  -0.468  -1.572  1.00  0.00    -0.271 OA
BRANCH  11  13
ATOM     13  C   UNL     1       2.241  -0.136  -0.868  1.00  0.00     0.194 C 
BRANCH  13  14
ATOM     14  O   UNL     1       2.418  -0.432  -2.280  1.00  0.00    -0.372 OA
ATOM     15  H   UNL     1       1.764  -1.126  -2.486  1.00  0.00     0.212 HD
ENDBRANCH  13  14
BRANCH  13  16
ATOM     16  C   UNL     1       2.774  -1.382  -0.144  1.00  0.00    -0.002 A 
ATOM     17  C   UNL     1       4.021  -1.923  -0.529  1.00  0.00     0.007 A 
ATOM     18  C   UNL     1       2.081  -2.027   0.895  1.00  0.00     0.007 A 
ATOM     19  C   UNL     1       4.552  -3.049   0.101  1.00  0.00     0.000 A 
ATOM     20  C   UNL     1       2.615  -3.155   1.526  1.00  0.00     0.000 A 
ATOM     21  C   UNL     1       3.849  -3.664   1.130  1.00  0.00     0.000 A 
ENDBRANCH  13  16
BRANCH  13  22
ATOM     22  C   UNL     1       3.011   1.172  -0.652  1.00  0.00    -0.002 A 
ATOM     23  C   UNL     1       3.981   1.335   0.355  1.00  0.00     0.007 A 
ATOM     24  C   UNL     1       2.747   2.278  -1.487  1.00  0.00     0.007 A 
ATOM     25  C   UNL     1       4.643   2.554   0.530  1.00  0.00     0.000 A 
ATOM     26  C   UNL     1       3.409   3.495  -1.312  1.00  0.00     0.000 A 
ATOM     27  C   UNL     1       4.355   3.633  -0.301  1.00  0.00     0.000 A 
ENDBRANCH  13  22
ENDBRANCH  11  13
ENDBRANCH   9  11
ENDBRANCH   1   9
TORSDOF 10
