REMARK SMILES CC(C)COCC(CN(Cc1ccccc1)c1ccccc1)N1CCCC1
REMARK SMILES IDX 6 1 5 2 4 3 2 4 1 5 3 6 7 7 8 8 9 9 10 10 11 11 12 12 16 13
REMARK SMILES IDX 13 14 15 15 14 16 17 17 18 18 22 19 19 20 21 21 20 22 23 23
REMARK SMILES IDX 24 24 27 25 25 26 26 27
REMARK H PARENT
ROOT
ATOM      1  C   UNL     1       2.000   0.498   0.589  1.00  0.00     0.181 C 
ENDROOT
BRANCH   1   2
ATOM      2  O   UNL     1       1.832   1.153  -0.674  1.00  0.00    -0.379 OA
BRANCH   2   3
ATOM      3  C   UNL     1       2.817   2.159  -0.910  1.00  0.00     0.163 C 
BRANCH   3   4
ATOM      4  C   UNL     1       3.550   1.860  -2.225  1.00  0.00     0.009 C 
ATOM      5  C   UNL     1       4.352   0.560  -2.133  1.00  0.00     0.010 C 
ATOM      6  C   UNL     1       4.468   3.024  -2.596  1.00  0.00     0.010 C 
ENDBRANCH   3   4
ENDBRANCH   2   3
ENDBRANCH   1   2
BRANCH   1   7
ATOM      7  C   UNL     1       0.879  -0.555   0.796  1.00  0.00     0.101 C 
BRANCH   7   8
ATOM      8  C   UNL     1      -0.479   0.223   0.902  1.00  0.00     0.138 C 
BRANCH   8   9
ATOM      9  N   UNL     1      -1.662  -0.609   0.571  1.00  0.00    -0.366 N 
BRANCH   9  10
ATOM     10  C   UNL     1      -2.893  -0.285   1.320  1.00  0.00     0.152 C 
BRANCH  10  11
ATOM     11  C   UNL     1      -3.439   1.096   1.015  1.00  0.00    -0.029 A 
ATOM     12  C   UNL     1      -4.158   1.339  -0.165  1.00  0.00     0.005 A 
ATOM     13  C   UNL     1      -3.241   2.157   1.912  1.00  0.00     0.005 A 
ATOM     14  C   UNL     1      -4.666   2.610  -0.442  1.00  0.00     0.000 A 
ATOM     15  C   UNL     1      -3.751   3.427   1.635  1.00  0.00     0.000 A 
ATOM     16  C   UNL     1      -4.464   3.653   0.459  1.00  0.00     0.000 A 
ENDBRANCH  10  11
ENDBRANCH   9  10
BRANCH   9  17
ATOM     17  C   UNL     1      -1.848  -1.060  -0.742  1.00  0.00     0.037 A 
ATOM     18  C   UNL     1      -1.282  -0.430  -1.861  1.00  0.00     0.026 A 
ATOM     19  C   UNL     1      -2.622  -2.208  -0.983  1.00  0.00     0.026 A 
ATOM     20  C   UNL     1      -1.499  -0.907  -3.159  1.00  0.00     0.002 A 
ATOM     21  C   UNL     1      -2.840  -2.694  -2.278  1.00  0.00     0.002 A 
ATOM     22  C   UNL     1      -2.283  -2.037  -3.367  1.00  0.00     0.000 A 
ENDBRANCH   9  17
ENDBRANCH   8   9
ENDBRANCH   7   8
BRANCH   7  23
ATOM     23  N   UNL     1       1.181  -1.406   1.988  1.00  0.00    -0.296 NA
ATOM     24  C   UNL     1       0.107  -2.354   2.307  1.00  0.00     0.085 C 
ATOM     25  C   UNL     1       2.368  -2.252   1.793  1.00  0.00     0.085 C 
ATOM     26  C   UNL     1       0.780  -3.300   3.286  1.00  0.00     0.017 C 
ATOM     27  C   UNL     1       2.218  -3.383   2.803  1.00  0.00     0.017 C 
ENDBRANCH   7  23
ENDBRANCH   1   7
TORSDOF 10
