REMARK SMILES N#Cc1cccc([C@@H](NCC2CC2)c2ccc(F)c(NC(=O)c3cc(C(F)(F)F)nn3-c3cccc(CN)c3)c2)c1
REMARK SMILES IDX 20 1 21 2 22 3 19 5 14 6 40 7 15 8 16 9 17 10 18 11 8 12
REMARK SMILES IDX 9 13 10 15 11 16 12 17 13 18 7 19 6 20 41 21 5 22 3 23 4 24
REMARK SMILES IDX 2 25 1 26 23 27 24 28 31 29 25 30 30 31 32 32 33 33 39 34
REMARK SMILES IDX 34 35 36 36 35 37 37 38 38 39 26 42 27 43 28 44 29 45
REMARK H PARENT 20 4 9 14 38 40 38 41
ROOT
ATOM      1  N   UNL     1       1.318  -2.043  -0.878  1.00  0.00    -0.318 N 
ATOM      2  C   UNL     1       1.886  -0.835  -1.234  1.00  0.00     0.274 C 
ATOM      3  O   UNL     1       1.394   0.264  -1.008  1.00  0.00    -0.267 OA
ATOM      4  H   UNL     1       1.867  -2.883  -1.033  1.00  0.00     0.170 HD
ENDROOT
BRANCH   1   5
ATOM      5  C   UNL     1       0.090  -2.265  -0.216  1.00  0.00     0.078 A 
ATOM      6  C   UNL     1      -2.043  -1.582   0.758  1.00  0.00    -0.024 A 
ATOM      7  C   UNL     1      -0.843  -1.271   0.084  1.00  0.00     0.035 A 
ATOM      8  C   UNL     1      -2.283  -2.915   1.138  1.00  0.00     0.009 A 
ATOM      9  C   UNL     1      -1.363  -3.916   0.833  1.00  0.00     0.042 A 
ATOM     10  C   UNL     1      -0.196  -3.585   0.157  1.00  0.00     0.146 A 
ATOM     11  F   UNL     1       0.687  -4.555  -0.133  1.00  0.00    -0.205 F 
BRANCH   6  12
ATOM     12  C   UNL     1      -3.046  -0.467   1.080  1.00  0.00     0.115 C 
BRANCH  12  13
ATOM     13  N   UNL     1      -3.150  -0.297   2.544  1.00  0.00    -0.306 NA
ATOM     14  H   UNL     1      -2.278  -0.631   2.953  1.00  0.00     0.123 HD
BRANCH  13  15
ATOM     15  C   UNL     1      -3.297   1.101   2.957  1.00  0.00     0.085 C 
BRANCH  15  16
ATOM     16  C   UNL     1      -4.656   1.646   2.657  1.00  0.00     0.003 C 
ATOM     17  C   UNL     1      -4.914   2.481   1.425  1.00  0.00     0.005 C 
ATOM     18  C   UNL     1      -4.909   3.128   2.781  1.00  0.00     0.005 C 
ENDBRANCH  15  16
ENDBRANCH  13  15
ENDBRANCH  12  13
BRANCH  12  19
ATOM     19  C   UNL     1      -4.393  -0.721   0.401  1.00  0.00    -0.025 A 
ATOM     20  C   UNL     1      -4.582  -0.331  -0.937  1.00  0.00     0.006 A 
ATOM     21  C   UNL     1      -5.455  -1.364   1.064  1.00  0.00     0.025 A 
ATOM     22  C   UNL     1      -5.799  -0.555  -1.583  1.00  0.00     0.002 A 
ATOM     23  C   UNL     1      -6.676  -1.589   0.419  1.00  0.00     0.052 A 
ATOM     24  C   UNL     1      -6.846  -1.180  -0.906  1.00  0.00     0.019 A 
ATOM     25  C   UNL     1      -7.749  -2.237   1.116  1.00  0.00     0.099 C 
ATOM     26  N   UNL     1      -8.615  -2.766   1.679  1.00  0.00    -0.192 NA
ENDBRANCH  12  19
ENDBRANCH   6  12
ENDBRANCH   1   5
BRANCH   2  27
ATOM     27  C   UNL     1       3.152  -0.988  -1.912  1.00  0.00     0.133 A 
ATOM     28  C   UNL     1       3.463  -1.887  -2.921  1.00  0.00     0.069 A 
ATOM     29  N   UNL     1       4.284  -0.197  -1.747  1.00  0.00    -0.227 N 
ATOM     30  C   UNL     1       4.741  -1.525  -3.395  1.00  0.00     0.167 A 
ATOM     31  N   UNL     1       5.211  -0.472  -2.711  1.00  0.00    -0.163 NA
BRANCH  29  32
ATOM     32  C   UNL     1       4.629   0.746  -0.728  1.00  0.00     0.066 A 
ATOM     33  C   UNL     1       3.950   0.814   0.494  1.00  0.00     0.028 A 
ATOM     34  C   UNL     1       5.726   1.603  -0.942  1.00  0.00     0.033 A 
ATOM     35  C   UNL     1       4.338   1.743   1.464  1.00  0.00     0.003 A 
ATOM     36  C   UNL     1       6.128   2.529   0.034  1.00  0.00    -0.032 A 
ATOM     37  C   UNL     1       5.415   2.596   1.236  1.00  0.00     0.005 A 
BRANCH  36  38
ATOM     38  C   UNL     1       7.271   3.474  -0.234  1.00  0.00     0.113 C 
BRANCH  38  39
ATOM     39  N   UNL     1       6.791   4.739  -0.778  1.00  0.00    -0.326 NA
ATOM     40  H   UNL     1       6.107   5.139  -0.138  1.00  0.00     0.119 HD
ATOM     41  H   UNL     1       6.272   4.544  -1.635  1.00  0.00     0.119 HD
ENDBRANCH  38  39
ENDBRANCH  36  38
ENDBRANCH  29  32
BRANCH  30  42
ATOM     42  C   UNL     1       5.496  -2.184  -4.520  1.00  0.00     0.435 C 
ATOM     43  F   UNL     1       6.597  -1.498  -4.921  1.00  0.00    -0.164 F 
ATOM     44  F   UNL     1       4.709  -2.341  -5.619  1.00  0.00    -0.164 F 
ATOM     45  F   UNL     1       5.912  -3.432  -4.169  1.00  0.00    -0.164 F 
ENDBRANCH  30  42
ENDBRANCH   2  27
TORSDOF 11
