REMARK SMILES N[C@@H]1CCCCN(c2c(F)cc3c(=O)c(C(=O)O)cn(C4CC4)c3c2Cl)C1
REMARK SMILES IDX 7 1 27 2 2 3 1 4 3 7 6 9 5 10 4 11 8 13 9 14 25 15 11 16
REMARK SMILES IDX 24 17 12 18 20 19 13 20 19 21 14 22 15 23 10 24 26 25 21 26
REMARK SMILES IDX 22 27 23 28 16 29 17 30 18 31
REMARK H PARENT 1 5 1 6 18 32
REMARK Flexibility Score:   17.900
ROOT
ATOM      1  N   UNL     1      -1.871   0.171   0.237  1.00  0.00    -0.366 N 
ENDROOT
BRANCH   1   2
ATOM      2  C   UNL     1      -2.688   0.155  -0.989  1.00  0.00     0.135 C 
BRANCH   2   3
ATOM      3  C   UNL     1      -4.031  -0.586  -0.779  1.00  0.00     0.070 C 
BRANCH   3   4
ATOM      4  N   UNL     1      -4.499  -1.180  -2.048  1.00  0.00    -0.326 NA
ATOM      5  H   UNL     1      -3.819  -1.878  -2.354  1.00  0.00     0.119 HD
ATOM      6  H   UNL     1      -5.363  -1.693  -1.879  1.00  0.00     0.119 HD
ENDBRANCH   3   4
BRANCH   3   7
ATOM      7  C   UNL     1      -5.131   0.362  -0.282  1.00  0.00     0.020 CG0
ATOM      8  G   UNL     1      -4.902   0.925   1.117  1.00  0.00     0.000 G0
ENDBRANCH   3   7
ENDBRANCH   2   3
ENDBRANCH   1   2
BRANCH   1   9
ATOM      9  C   UNL     1      -2.378   0.807   1.463  1.00  0.00     0.117 C 
BRANCH   9  10
ATOM     10  C   UNL     1      -3.601   1.704   1.290  1.00  0.00     0.021 C 
BRANCH  10  11
ATOM     11  C   UNL     1      -4.902   0.925   1.117  1.00  0.00     0.003 CG0
ATOM     12  G   UNL     1      -5.131   0.362  -0.282  1.00  0.00     0.000 G0
ENDBRANCH  10  11
ENDBRANCH   9  10
ENDBRANCH   1   9
BRANCH   1  13
ATOM     13  C   UNL     1      -0.514   0.502  -0.044  1.00  0.00     0.094 A 
ATOM     14  C   UNL     1      -0.141   1.814  -0.378  1.00  0.00     0.148 A 
ATOM     15  C   UNL     1       0.497  -0.502  -0.022  1.00  0.00     0.091 A 
ATOM     16  C   UNL     1       1.163   2.137  -0.703  1.00  0.00     0.056 A 
ATOM     17  C   UNL     1       1.858  -0.190  -0.283  1.00  0.00     0.073 A 
ATOM     18  C   UNL     1       2.147   1.143  -0.671  1.00  0.00     0.051 A 
ATOM     19  N   UNL     1       2.960  -1.103  -0.205  1.00  0.00    -0.342 N 
ATOM     20  C   UNL     1       3.527   1.532  -1.068  1.00  0.00     0.204 C 
ATOM     21  C   UNL     1       4.180  -0.754  -0.759  1.00  0.00     0.106 C 
ATOM     22  O   UNL     1       3.802   2.715  -1.238  1.00  0.00    -0.288 OA
ATOM     23  C   UNL     1       4.525   0.455  -1.220  1.00  0.00     0.124 C 
ATOM     24  F   UNL     1      -1.064   2.788  -0.415  1.00  0.00    -0.205 F 
ATOM     25  Cl  UNL     1      -0.048  -2.143   0.219  1.00  0.00    -0.080 Cl
BRANCH  19  26
ATOM     26  C   UNL     1       2.937  -2.349   0.590  1.00  0.00     0.087 C 
ATOM     27  C   UNL     1       2.646  -2.342   2.073  1.00  0.00     0.027 C 
ATOM     28  C   UNL     1       4.021  -2.676   1.596  1.00  0.00     0.027 C 
ENDBRANCH  19  26
BRANCH  23  29
ATOM     29  C   UNL     1       5.867   0.621  -1.785  1.00  0.00     0.341 C 
ATOM     30  O   UNL     1       6.840  -0.066  -1.523  1.00  0.00    -0.246 OA
BRANCH  29  31
ATOM     31  O   UNL     1       5.936   1.588  -2.712  1.00  0.00    -0.477 OA
ATOM     32  H   UNL     1       6.873   1.606  -2.993  1.00  0.00     0.297 HD
ENDBRANCH  29  31
ENDBRANCH  23  29
ENDBRANCH   1  13
TORSDOF 5
