REMARK SMILES C[N+](C)(C)CC(=O)[O-]
REMARK SMILES IDX 5 1 2 2 1 3 3 4 4 5 6 6 7 7 8 8
REMARK H PARENT
ROOT
ATOM      1  C   UNL     1       1.143   0.171  -0.586  1.00  0.00     0.317 C 
ENDROOT
BRANCH   1   2
ATOM      2  N   UNL     1      -0.356  -0.046  -0.129  1.00  0.00    -0.326 N 
ATOM      3  C   UNL     1      -0.409  -1.327   0.687  1.00  0.00     0.334 C 
ATOM      4  C   UNL     1      -0.747   1.133   0.748  1.00  0.00     0.334 C 
ATOM      5  C   UNL     1      -1.236  -0.136  -1.342  1.00  0.00     0.334 C 
ENDBRANCH   1   2
BRANCH   1   6
ATOM      6  C   UNL     1       2.203   0.289   0.544  1.00  0.00     0.096 C 
ATOM      7  O   UNL     1       2.359   1.460   0.985  1.00  0.00    -0.544 OA
ATOM      8  O   UNL     1       2.672  -0.817   0.929  1.00  0.00    -0.544 OA
ENDBRANCH   1   6
TORSDOF 2
