REMARK SMILES O=C(O)CNC(=O)CNC(=O)CNC(=O)CSC(=O)c1ccccc1
REMARK SMILES IDX 9 1 10 2 11 3 8 5 6 6 5 7 7 8 4 10 2 11 1 12 3 13 12 15
REMARK SMILES IDX 13 16 14 17 15 18 16 20 17 21 18 22 19 23 20 24 21 25 25 26
REMARK SMILES IDX 22 27 24 28 23 29
REMARK H PARENT 9 4 5 9 3 14 13 19
ROOT
ATOM      1  N   UNL     1      -0.786  -0.529   1.851  1.00  0.00    -0.346 N 
ATOM      2  C   UNL     1      -0.924  -1.729   2.506  1.00  0.00     0.239 C 
ATOM      3  O   UNL     1      -1.451  -1.825   3.614  1.00  0.00    -0.273 OA
ATOM      4  H   UNL     1      -0.138  -0.473   1.063  1.00  0.00     0.164 HD
ENDROOT
BRANCH   1   5
ATOM      5  C   UNL     1      -1.077   0.733   2.525  1.00  0.00     0.216 C 
BRANCH   5   6
ATOM      6  C   UNL     1      -2.522   1.222   2.347  1.00  0.00     0.239 C 
ATOM      7  N   UNL     1      -3.341   0.374   1.635  1.00  0.00    -0.344 N 
ATOM      8  O   UNL     1      -2.913   2.293   2.807  1.00  0.00    -0.273 OA
ATOM      9  H   UNL     1      -2.855  -0.328   1.090  1.00  0.00     0.164 HD
BRANCH   7  10
ATOM     10  C   UNL     1      -4.669   0.775   1.214  1.00  0.00     0.238 C 
BRANCH  10  11
ATOM     11  C   UNL     1      -4.625   1.331  -0.200  1.00  0.00     0.322 C 
ATOM     12  O   UNL     1      -3.743   1.151  -1.027  1.00  0.00    -0.250 OA
BRANCH  11  13
ATOM     13  O   UNL     1      -5.739   2.023  -0.522  1.00  0.00    -0.480 OA
ATOM     14  H   UNL     1      -5.575   2.326  -1.440  1.00  0.00     0.296 HD
ENDBRANCH  11  13
ENDBRANCH  10  11
ENDBRANCH   7  10
ENDBRANCH   5   6
ENDBRANCH   1   5
BRANCH   2  15
ATOM     15  C   UNL     1      -0.414  -2.973   1.767  1.00  0.00     0.216 C 
BRANCH  15  16
ATOM     16  N   UNL     1       0.079  -2.774   0.413  1.00  0.00    -0.346 N 
ATOM     17  C   UNL     1       1.414  -2.575   0.148  1.00  0.00     0.230 C 
ATOM     18  O   UNL     1       2.262  -2.475   1.030  1.00  0.00    -0.274 OA
ATOM     19  H   UNL     1      -0.592  -2.647  -0.336  1.00  0.00     0.164 HD
BRANCH  17  20
ATOM     20  C   UNL     1       1.786  -2.556  -1.324  1.00  0.00     0.178 C 
BRANCH  20  21
ATOM     21  S   UNL     1       0.856  -1.320  -2.269  1.00  0.00    -0.073 SA
BRANCH  21  22
ATOM     22  C   UNL     1       1.325   0.096  -1.342  1.00  0.00     0.219 C 
ATOM     23  O   UNL     1       0.744   0.341  -0.292  1.00  0.00    -0.282 OA
BRANCH  22  24
ATOM     24  C   UNL     1       2.460   0.931  -1.823  1.00  0.00     0.029 A 
ATOM     25  C   UNL     1       3.099   1.758  -0.886  1.00  0.00     0.013 A 
ATOM     26  C   UNL     1       2.911   0.925  -3.150  1.00  0.00     0.013 A 
ATOM     27  C   UNL     1       4.186   2.547  -1.265  1.00  0.00     0.001 A 
ATOM     28  C   UNL     1       3.999   1.721  -3.526  1.00  0.00     0.001 A 
ATOM     29  C   UNL     1       4.634   2.529  -2.584  1.00  0.00     0.000 A 
ENDBRANCH  22  24
ENDBRANCH  21  22
ENDBRANCH  20  21
ENDBRANCH  17  20
ENDBRANCH  15  16
ENDBRANCH   2  15
TORSDOF 11
