REMARK SMILES COc1ccc(CCNCC(O)COc2cccc(C)c2)cc1OC
REMARK SMILES IDX 9 1 8 3 7 4 6 5 3 6 23 7 4 8 22 9 5 10 2 11 1 12 24 13 25 14
REMARK SMILES IDX 10 15 11 16 12 17 13 19 14 20 15 21 21 22 16 23 19 24 17 25
REMARK SMILES IDX 18 26 20 27
REMARK H PARENT 9 2 12 18
ROOT
ATOM      1  N   UNL     1      -0.411  -2.306  -0.261  1.00  0.00    -0.314 NA
ATOM      2  H   UNL     1      -0.375  -3.250   0.142  1.00  0.00     0.122 HD
ENDROOT
BRANCH   1   3
ATOM      3  C   UNL     1      -1.516  -1.542   0.333  1.00  0.00     0.086 C 
BRANCH   3   4
ATOM      4  C   UNL     1      -2.051  -0.498  -0.652  1.00  0.00     0.051 C 
BRANCH   4   5
ATOM      5  C   UNL     1      -3.250   0.240  -0.111  1.00  0.00    -0.043 A 
ATOM      6  C   UNL     1      -5.494   1.636   0.858  1.00  0.00     0.160 A 
ATOM      7  C   UNL     1      -5.666   0.428   0.152  1.00  0.00     0.160 A 
ATOM      8  C   UNL     1      -4.202   2.115   1.100  1.00  0.00     0.051 A 
ATOM      9  C   UNL     1      -4.544  -0.257  -0.330  1.00  0.00     0.054 A 
ATOM     10  C   UNL     1      -3.089   1.423   0.621  1.00  0.00     0.008 A 
BRANCH   6  11
ATOM     11  O   UNL     1      -6.639   2.262   1.285  1.00  0.00    -0.493 OA
ATOM     12  C   UNL     1      -6.522   3.617   1.705  1.00  0.00     0.278 C 
ENDBRANCH   6  11
BRANCH   7  13
ATOM     13  O   UNL     1      -6.960   0.015  -0.038  1.00  0.00    -0.493 OA
ATOM     14  C   UNL     1      -7.156  -1.284  -0.577  1.00  0.00     0.278 C 
ENDBRANCH   7  13
ENDBRANCH   4   5
ENDBRANCH   3   4
ENDBRANCH   1   3
BRANCH   1  15
ATOM     15  C   UNL     1       0.892  -1.652  -0.063  1.00  0.00     0.116 C 
BRANCH  15  16
ATOM     16  C   UNL     1       2.010  -2.384  -0.843  1.00  0.00     0.165 C 
BRANCH  16  17
ATOM     17  O   UNL     1       1.797  -2.250  -2.259  1.00  0.00    -0.388 OA
ATOM     18  H   UNL     1       1.694  -1.303  -2.442  1.00  0.00     0.211 HD
ENDBRANCH  16  17
BRANCH  16  19
ATOM     19  C   UNL     1       3.402  -1.837  -0.508  1.00  0.00     0.262 C 
BRANCH  19  20
ATOM     20  O   UNL     1       3.401  -0.408  -0.646  1.00  0.00    -0.491 OA
BRANCH  20  21
ATOM     21  C   UNL     1       4.609   0.224  -0.541  1.00  0.00     0.119 A 
ATOM     22  C   UNL     1       5.832  -0.381  -0.226  1.00  0.00     0.049 A 
ATOM     23  C   UNL     1       4.569   1.601  -0.782  1.00  0.00     0.046 A 
ATOM     24  C   UNL     1       7.013   0.377  -0.163  1.00  0.00    -0.047 A 
ATOM     25  C   UNL     1       5.735   2.363  -0.729  1.00  0.00     0.004 A 
ATOM     26  C   UNL     1       6.956   1.749  -0.429  1.00  0.00     0.003 A 
ATOM     27  C   UNL     1       8.333  -0.286   0.119  1.00  0.00     0.044 C 
ENDBRANCH  20  21
ENDBRANCH  19  20
ENDBRANCH  16  19
ENDBRANCH  15  16
ENDBRANCH   1  15
TORSDOF 11
