REMARK SMILES CCC(=O)n1c(=O)n(C2CCN(CCC(C#N)(c3ccccc3)c3ccccc3)CC2)c2ccccc21
REMARK SMILES IDX 9 1 10 2 11 3 12 4 30 5 31 6 8 7 5 8 6 9 37 10 7 11 32 12
REMARK SMILES IDX 36 13 33 14 35 15 34 16 3 17 4 18 2 19 1 20 13 21 14 22
REMARK SMILES IDX 15 23 16 24 17 25 18 26 19 27 23 28 20 29 22 30 21 31 24 32
REMARK SMILES IDX 25 33 29 34 26 35 28 36 27 37
REMARK H PARENT
ROOT
ATOM      1  C   UNL     1       1.884  -0.629  -0.451  1.00  0.00     0.095 C 
ATOM      2  C   UNL     1       1.066  -0.383   0.832  1.00  0.00     0.041 C 
ATOM      3  C   UNL     1       0.244   0.903   0.771  1.00  0.00     0.086 C 
ATOM      4  N   UNL     1      -0.606   1.003  -0.415  1.00  0.00    -0.303 NA
ATOM      5  C   UNL     1      -0.090   0.373  -1.626  1.00  0.00     0.086 C 
ATOM      6  C   UNL     1       1.432   0.268  -1.611  1.00  0.00     0.041 C 
ENDROOT
BRANCH   1   7
ATOM      7  N   UNL     1       3.324  -0.539  -0.241  1.00  0.00    -0.288 N 
ATOM      8  N   UNL     1       5.410   0.280   0.238  1.00  0.00    -0.230 N 
ATOM      9  C   UNL     1       4.007   0.560   0.333  1.00  0.00     0.336 C 
ATOM     10  C   UNL     1       5.545  -0.965  -0.425  1.00  0.00     0.077 A 
ATOM     11  O   UNL     1       3.476   1.553   0.809  1.00  0.00    -0.247 OA
ATOM     12  C   UNL     1       4.271  -1.452  -0.725  1.00  0.00     0.070 A 
ATOM     13  C   UNL     1       6.677  -1.674  -0.786  1.00  0.00     0.029 A 
ATOM     14  C   UNL     1       4.086  -2.649  -1.395  1.00  0.00     0.028 A 
ATOM     15  C   UNL     1       6.508  -2.888  -1.461  1.00  0.00     0.002 A 
ATOM     16  C   UNL     1       5.224  -3.370  -1.764  1.00  0.00     0.002 A 
BRANCH   8  17
ATOM     17  C   UNL     1       6.482   1.057   0.676  1.00  0.00     0.235 C 
ATOM     18  O   UNL     1       7.666   0.747   0.527  1.00  0.00    -0.274 OA
BRANCH  17  19
ATOM     19  C   UNL     1       6.109   2.361   1.370  1.00  0.00     0.098 C 
ATOM     20  C   UNL     1       7.327   3.145   1.834  1.00  0.00     0.014 C 
ENDBRANCH  17  19
ENDBRANCH   8  17
ENDBRANCH   1   7
BRANCH   4  21
ATOM     21  C   UNL     1      -2.043   0.833  -0.185  1.00  0.00     0.087 C 
BRANCH  21  22
ATOM     22  C   UNL     1      -2.459  -0.566   0.307  1.00  0.00     0.047 C 
BRANCH  22  23
ATOM     23  C   UNL     1      -4.004  -0.836   0.406  1.00  0.00     0.108 C 
ATOM     24  C   UNL     1      -4.119  -2.214   1.002  1.00  0.00     0.079 C 
ATOM     25  N   UNL     1      -4.174  -3.273   1.478  1.00  0.00    -0.197 NA
BRANCH  23  26
ATOM     26  C   UNL     1      -4.749  -0.916  -0.955  1.00  0.00    -0.023 A 
ATOM     27  C   UNL     1      -4.091  -0.937  -2.197  1.00  0.00     0.006 A 
ATOM     28  C   UNL     1      -6.158  -1.045  -0.968  1.00  0.00     0.006 A 
ATOM     29  C   UNL     1      -4.808  -1.036  -3.395  1.00  0.00     0.000 A 
ATOM     30  C   UNL     1      -6.871  -1.147  -2.164  1.00  0.00     0.000 A 
ATOM     31  C   UNL     1      -6.195  -1.137  -3.379  1.00  0.00     0.000 A 
ENDBRANCH  23  26
BRANCH  23  32
ATOM     32  C   UNL     1      -4.604   0.233   1.367  1.00  0.00    -0.023 A 
ATOM     33  C   UNL     1      -5.143   1.440   0.875  1.00  0.00     0.006 A 
ATOM     34  C   UNL     1      -4.563   0.065   2.767  1.00  0.00     0.006 A 
ATOM     35  C   UNL     1      -5.649   2.415   1.739  1.00  0.00     0.000 A 
ATOM     36  C   UNL     1      -5.070   1.042   3.629  1.00  0.00     0.000 A 
ATOM     37  C   UNL     1      -5.616   2.214   3.114  1.00  0.00     0.000 A 
ENDBRANCH  23  32
ENDBRANCH  22  23
ENDBRANCH  21  22
ENDBRANCH   4  21
TORSDOF 8
