REMARK SMILES C[C@@H](O)[C@H]1C(=O)N2C(C(=O)[O-])=C(SC3Cn4cnc[n+]4C3)[C@H](C)[C@H]12
REMARK SMILES IDX 4 1 24 2 22 3 23 4 12 5 8 6 7 7 5 8 6 9 2 10 1 11 3 12 13 14
REMARK SMILES IDX 14 15 15 16 21 17 16 18 20 19 17 20 19 21 18 22 9 23 10 24
REMARK SMILES IDX 11 25
REMARK H PARENT 3 13
ROOT
ATOM      1  C   UNL     1      -3.049   0.117  -0.014  1.00  0.00     0.131 C 
ATOM      2  C   UNL     1      -1.899  -0.871  -0.389  1.00  0.00     0.113 C 
ATOM      3  C   UNL     1      -1.018  -0.831  -1.646  1.00  0.00     0.049 C 
ATOM      4  C   UNL     1      -1.694  -0.071  -2.782  1.00  0.00     0.015 C 
ATOM      5  C   UNL     1       0.276  -0.207  -1.137  1.00  0.00     0.016 C 
ATOM      6  C   UNL     1       0.140   0.159   0.149  1.00  0.00     0.077 C 
ATOM      7  N   UNL     1      -1.097  -0.208   0.663  1.00  0.00    -0.305 N 
ATOM      8  C   UNL     1      -2.038   0.741   0.958  1.00  0.00     0.235 C 
ATOM      9  O   UNL     1      -2.030   1.728   1.656  1.00  0.00    -0.274 OA
ENDROOT
BRANCH   1  10
ATOM     10  C   UNL     1      -4.269  -0.510   0.639  1.00  0.00     0.125 C 
ATOM     11  C   UNL     1      -5.249   0.560   1.098  1.00  0.00     0.039 C 
BRANCH  10  12
ATOM     12  O   UNL     1      -4.911  -1.339  -0.333  1.00  0.00    -0.393 OA
ATOM     13  H   UNL     1      -5.717  -1.698   0.080  1.00  0.00     0.210 HD
ENDBRANCH  10  12
ENDBRANCH   1  10
BRANCH   5  14
ATOM     14  S   UNL     1       1.579  -0.030  -2.250  1.00  0.00    -0.118 SA
BRANCH  14  15
ATOM     15  C   UNL     1       3.162  -0.263  -1.391  1.00  0.00     0.119 C 
ATOM     16  C   UNL     1       3.289  -1.305  -0.230  1.00  0.00     0.188 C 
ATOM     17  C   UNL     1       3.840   1.068  -0.941  1.00  0.00     0.284 C 
ATOM     18  N   UNL     1       4.092  -0.618   0.750  1.00  0.00    -0.180 N 
ATOM     19  N   UNL     1       4.263   0.777   0.394  1.00  0.00    -0.155 N 
ATOM     20  C   UNL     1       4.319  -0.665   2.116  1.00  0.00     0.380 A 
ATOM     21  C   UNL     1       4.598   1.424   1.561  1.00  0.00     0.474 A 
ATOM     22  N   UNL     1       4.771   0.547   2.627  1.00  0.00    -0.034 NA
ENDBRANCH  14  15
ENDBRANCH   5  14
BRANCH   6  23
ATOM     23  C   UNL     1       1.153   0.885   1.066  1.00  0.00     0.089 C 
ATOM     24  O   UNL     1       1.442   0.268   2.129  1.00  0.00    -0.543 OA
ATOM     25  O   UNL     1       1.724   1.903   0.577  1.00  0.00    -0.543 OA
ENDBRANCH   6  23
TORSDOF 5
