REMARK SMILES O=C(CCCN1CCN2Cc3[nH]c4ccccc4c3CC2C1)c1ccc(F)cc1
REMARK SMILES IDX 3 1 2 2 1 3 23 4 26 5 25 6 28 7 24 8 29 9 27 10 4 11 5 12
REMARK SMILES IDX 6 13 7 14 22 15 8 16 21 17 9 18 20 19 10 20 19 21 11 22
REMARK SMILES IDX 18 23 12 24 17 25 13 26 16 27 14 28 15 29
REMARK H PARENT 12 30
ROOT
ATOM      1  C   UNL     1      -3.478   0.661   1.302  1.00  0.00     0.082 C 
ENDROOT
BRANCH   1   2
ATOM      2  C   UNL     1      -3.910  -0.725   0.861  1.00  0.00     0.162 C 
ATOM      3  O   UNL     1      -3.176  -1.699   1.015  1.00  0.00    -0.294 OA
BRANCH   2   4
ATOM      4  C   UNL     1      -5.247  -0.921   0.218  1.00  0.00     0.018 A 
ATOM      5  C   UNL     1      -7.724  -1.409  -0.976  1.00  0.00     0.123 A 
ATOM      6  C   UNL     1      -7.273  -0.101  -0.836  1.00  0.00     0.040 A 
ATOM      7  C   UNL     1      -6.957  -2.479  -0.533  1.00  0.00     0.040 A 
ATOM      8  C   UNL     1      -6.033   0.147  -0.239  1.00  0.00     0.015 A 
ATOM      9  C   UNL     1      -5.717  -2.235   0.062  1.00  0.00     0.015 A 
ATOM     10  F   UNL     1      -8.912  -1.639  -1.546  1.00  0.00    -0.207 F 
ENDBRANCH   2   4
ENDBRANCH   1   2
BRANCH   1  11
ATOM     11  C   UNL     1      -2.691   1.387   0.211  1.00  0.00     0.024 C 
BRANCH  11  12
ATOM     12  C   UNL     1      -1.242   0.893   0.059  1.00  0.00     0.085 C 
BRANCH  12  13
ATOM     13  N   UNL     1      -0.434   1.052   1.274  1.00  0.00    -0.300 NA
ATOM     14  C   UNL     1      -0.089   2.447   1.592  1.00  0.00     0.100 C 
ATOM     15  C   UNL     1       0.775   0.190   1.235  1.00  0.00     0.104 C 
ATOM     16  C   UNL     1       1.113   3.035   0.813  1.00  0.00     0.101 C 
ATOM     17  C   UNL     1       2.120   0.925   1.521  1.00  0.00     0.075 C 
ATOM     18  N   UNL     1       2.283   2.143   0.667  1.00  0.00    -0.292 NA
ATOM     19  C   UNL     1       3.331  -0.056   1.460  1.00  0.00     0.058 C 
ATOM     20  C   UNL     1       2.508   1.824  -0.759  1.00  0.00     0.139 C 
ATOM     21  C   UNL     1       3.875  -0.164   0.080  1.00  0.00    -0.016 A 
ATOM     22  C   UNL     1       3.501   0.728  -0.900  1.00  0.00     0.033 A 
ATOM     23  C   UNL     1       4.813  -1.066  -0.488  1.00  0.00     0.003 A 
ATOM     24  N   UNL     1       4.175   0.409  -2.046  1.00  0.00    -0.357 N 
ATOM     25  C   UNL     1       5.541  -2.168  -0.001  1.00  0.00     0.010 A 
ATOM     26  C   UNL     1       4.981  -0.687  -1.823  1.00  0.00     0.046 A 
ATOM     27  C   UNL     1       6.407  -2.854  -0.861  1.00  0.00     0.001 A 
ATOM     28  C   UNL     1       5.843  -1.364  -2.696  1.00  0.00     0.026 A 
ATOM     29  C   UNL     1       6.553  -2.456  -2.188  1.00  0.00     0.002 A 
ATOM     30  H   UNL     1       4.102   0.896  -2.928  1.00  0.00     0.166 HD
ENDBRANCH  12  13
ENDBRANCH  11  12
ENDBRANCH   1  11
TORSDOF 5
