REMARK SMILES C(=N\NC1=NCCN1)/c1c2ccccc2c(/C=N/NC2=NCCN2)c2ccccc12
REMARK SMILES IDX 9 1 10 2 11 3 12 4 13 5 14 6 15 7 16 8 25 9 30 10 29 11
REMARK SMILES IDX 28 12 27 13 26 14 1 15 2 16 3 17 7 18 6 19 8 20 5 21 4 22
REMARK SMILES IDX 17 25 18 26 19 27 20 28 21 29 24 30 22 31 23 32
REMARK H PARENT 8 23 3 24 19 33 24 34
ROOT
ATOM      1  C   UNL     1      -1.350  -0.139  -0.384  1.00  0.00     0.010 A 
ATOM      2  C   UNL     1      -0.462   0.487  -1.304  1.00  0.00    -0.008 A 
ATOM      3  C   UNL     1      -0.892   1.181  -2.467  1.00  0.00     0.009 A 
ATOM      4  C   UNL     1       0.001   1.792  -3.346  1.00  0.00     0.001 A 
ATOM      5  C   UNL     1       1.358   1.729  -3.089  1.00  0.00     0.001 A 
ATOM      6  C   UNL     1       1.812   1.044  -1.963  1.00  0.00     0.009 A 
ATOM      7  C   UNL     1       0.926   0.399  -1.059  1.00  0.00    -0.008 A 
ATOM      8  C   UNL     1       1.370  -0.325   0.084  1.00  0.00     0.010 A 
ATOM      9  C   UNL     1       0.483  -0.969   0.992  1.00  0.00    -0.008 A 
ATOM     10  C   UNL     1      -0.906  -0.866   0.756  1.00  0.00    -0.008 A 
ATOM     11  C   UNL     1      -1.792  -1.489   1.676  1.00  0.00     0.009 A 
ATOM     12  C   UNL     1      -1.336  -2.216   2.774  1.00  0.00     0.001 A 
ATOM     13  C   UNL     1       0.024  -2.341   2.990  1.00  0.00     0.001 A 
ATOM     14  C   UNL     1       0.917  -1.727   2.112  1.00  0.00     0.009 A 
ENDROOT
BRANCH   1  15
ATOM     15  C   UNL     1      -2.812  -0.084  -0.624  1.00  0.00     0.142 C 
ATOM     16  N   UNL     1      -3.447   1.043  -0.698  1.00  0.00    -0.181 NA
BRANCH  16  17
ATOM     17  N   UNL     1      -4.803   0.948  -0.860  1.00  0.00    -0.247 N 
ATOM     18  C   UNL     1      -7.732  -0.219   0.738  1.00  0.00     0.139 C 
ATOM     19  C   UNL     1      -6.739  -1.324   1.093  1.00  0.00     0.167 C 
ATOM     20  N   UNL     1      -6.991   0.534  -0.253  1.00  0.00    -0.353 N 
ATOM     21  N   UNL     1      -5.411  -0.861   0.614  1.00  0.00    -0.250 NA
ATOM     22  C   UNL     1      -5.676   0.169  -0.143  1.00  0.00     0.212 C 
ATOM     23  H   UNL     1      -7.163   1.531  -0.233  1.00  0.00     0.163 HD
ATOM     24  H   UNL     1      -5.223   1.789  -1.239  1.00  0.00     0.193 HD
ENDBRANCH  16  17
ENDBRANCH   1  15
BRANCH   8  25
ATOM     25  C   UNL     1       2.833  -0.433   0.290  1.00  0.00     0.142 C 
ATOM     26  N   UNL     1       3.401   0.001   1.371  1.00  0.00    -0.181 NA
BRANCH  26  27
ATOM     27  N   UNL     1       4.765  -0.103   1.405  1.00  0.00    -0.247 N 
ATOM     28  C   UNL     1       5.656   0.281   0.435  1.00  0.00     0.212 C 
ATOM     29  N   UNL     1       5.426   0.530  -0.826  1.00  0.00    -0.250 NA
ATOM     30  N   UNL     1       6.949   0.413   0.865  1.00  0.00    -0.353 N 
ATOM     31  C   UNL     1       6.760   0.857  -1.392  1.00  0.00     0.167 C 
ATOM     32  C   UNL     1       7.695   1.052  -0.200  1.00  0.00     0.139 C 
ATOM     33  H   UNL     1       5.148  -0.077   2.344  1.00  0.00     0.193 HD
ATOM     34  H   UNL     1       7.058   0.852   1.771  1.00  0.00     0.163 HD
ENDBRANCH  26  27
ENDBRANCH   8  25
TORSDOF 4
