REMARK SMILES CCN1C[C@H]2CN(C)C[C@@H](C1)[C@H]2OC(=O)c1ccc(Cl)cc1
REMARK SMILES IDX 13 1 12 2 3 3 11 4 4 5 10 6 5 7 9 8 6 9 7 10 8 11 2 12 1 13
REMARK SMILES IDX 14 14 15 15 16 16 17 17 22 18 18 19 21 20 19 21 20 22
REMARK H PARENT
ROOT
ATOM      1  O   UNL     1       1.236   0.607   0.105  1.00  0.00    -0.458 OA
ENDROOT
BRANCH   1   2
ATOM      2  C   UNL     1      -0.052   1.243  -0.044  1.00  0.00     0.188 C 
ATOM      3  N   UNL     1      -1.710  -1.210   0.143  1.00  0.00    -0.303 NA
ATOM      4  C   UNL     1      -1.082  -0.599   1.328  1.00  0.00     0.093 C 
ATOM      5  C   UNL     1      -1.004  -0.829  -1.094  1.00  0.00     0.093 C 
ATOM      6  C   UNL     1      -0.909   0.931   1.189  1.00  0.00     0.059 C 
ATOM      7  C   UNL     1      -0.833   0.697  -1.245  1.00  0.00     0.059 C 
ATOM      8  C   UNL     1      -2.280   1.640   1.077  1.00  0.00     0.093 C 
ATOM      9  C   UNL     1      -2.202   1.412  -1.352  1.00  0.00     0.093 C 
ATOM     10  N   UNL     1      -2.477   2.310  -0.218  1.00  0.00    -0.305 NA
ATOM     11  C   UNL     1      -3.815   2.887  -0.316  1.00  0.00     0.105 C 
BRANCH   3  12
ATOM     12  C   UNL     1      -1.802  -2.675   0.246  1.00  0.00     0.081 C 
ATOM     13  C   UNL     1      -2.752  -3.139   1.345  1.00  0.00     0.021 C 
ENDBRANCH   3  12
ENDBRANCH   1   2
BRANCH   1  14
ATOM     14  C   UNL     1       2.219   1.044  -0.719  1.00  0.00     0.338 C 
ATOM     15  O   UNL     1       2.115   1.911  -1.571  1.00  0.00    -0.246 OA
BRANCH  14  16
ATOM     16  C   UNL     1       3.483   0.303  -0.455  1.00  0.00     0.060 A 
ATOM     17  C   UNL     1       3.574  -0.716   0.505  1.00  0.00     0.017 A 
ATOM     18  C   UNL     1       4.619   0.643  -1.205  1.00  0.00     0.017 A 
ATOM     19  C   UNL     1       4.786  -1.383   0.711  1.00  0.00     0.021 A 
ATOM     20  C   UNL     1       5.829  -0.025  -0.998  1.00  0.00     0.021 A 
ATOM     21  C   UNL     1       5.907  -1.035  -0.041  1.00  0.00     0.041 A 
ATOM     22  Cl  UNL     1       7.395  -1.858   0.215  1.00  0.00    -0.084 Cl
ENDBRANCH  14  16
ENDBRANCH   1  14
TORSDOF 4
