REMARK SMILES Cc1ccc(C(=O)Oc2ccc(C(O)CNC(C)(C)C)cc2OC(=O)c2ccc(C)cc2)cc1
REMARK SMILES IDX 9 1 22 2 21 3 12 4 11 5 10 6 8 7 6 8 7 9 5 10 2 11 3 12
REMARK SMILES IDX 34 13 4 14 33 15 1 16 23 17 24 18 25 19 26 20 27 21 32 22
REMARK SMILES IDX 28 23 31 24 29 25 30 26 13 27 14 28 15 30 16 31 17 33 18 34
REMARK SMILES IDX 19 35 20 36
REMARK H PARENT 14 29 16 32
ROOT
ATOM      1  C   UNL     1      -0.371  -0.880  -0.905  1.00  0.00     0.173 A 
ATOM      2  C   UNL     1      -0.004   0.417  -0.557  1.00  0.00     0.174 A 
ATOM      3  C   UNL     1       1.341   0.749  -0.402  1.00  0.00     0.057 A 
ATOM      4  C   UNL     1       2.337  -0.235  -0.558  1.00  0.00    -0.014 A 
ATOM      5  C   UNL     1       1.947  -1.537  -0.919  1.00  0.00     0.010 A 
ATOM      6  C   UNL     1       0.597  -1.860  -1.098  1.00  0.00     0.052 A 
ENDROOT
BRANCH   1   7
ATOM      7  O   UNL     1      -1.715  -1.170  -1.144  1.00  0.00    -0.419 OA
BRANCH   7   8
ATOM      8  C   UNL     1      -2.337  -1.773  -0.067  1.00  0.00     0.343 C 
ATOM      9  O   UNL     1      -1.814  -2.169   0.964  1.00  0.00    -0.246 OA
BRANCH   8  10
ATOM     10  C   UNL     1      -3.798  -1.892  -0.337  1.00  0.00     0.060 A 
ATOM     11  C   UNL     1      -6.572  -2.163  -0.732  1.00  0.00    -0.051 A 
ATOM     12  C   UNL     1      -5.966  -2.685   0.416  1.00  0.00     0.004 A 
ATOM     13  C   UNL     1      -5.784  -1.487  -1.671  1.00  0.00     0.004 A 
ATOM     14  C   UNL     1      -4.588  -2.555   0.611  1.00  0.00     0.016 A 
ATOM     15  C   UNL     1      -4.405  -1.355  -1.480  1.00  0.00     0.016 A 
ATOM     16  C   UNL     1      -8.056  -2.273  -0.922  1.00  0.00     0.044 C 
ENDBRANCH   8  10
ENDBRANCH   7   8
ENDBRANCH   1   7
BRANCH   2  17
ATOM     17  O   UNL     1      -1.005   1.390  -0.466  1.00  0.00    -0.419 OA
BRANCH  17  18
ATOM     18  C   UNL     1      -1.168   1.955   0.786  1.00  0.00     0.343 C 
ATOM     19  O   UNL     1      -0.482   1.765   1.778  1.00  0.00    -0.246 OA
BRANCH  18  20
ATOM     20  C   UNL     1      -2.347   2.865   0.772  1.00  0.00     0.060 A 
ATOM     21  C   UNL     1      -2.652   3.563   1.947  1.00  0.00     0.016 A 
ATOM     22  C   UNL     1      -3.164   3.030  -0.355  1.00  0.00     0.016 A 
ATOM     23  C   UNL     1      -3.758   4.416   1.996  1.00  0.00     0.004 A 
ATOM     24  C   UNL     1      -4.270   3.884  -0.302  1.00  0.00     0.004 A 
ATOM     25  C   UNL     1      -4.569   4.590   0.870  1.00  0.00    -0.051 A 
ATOM     26  C   UNL     1      -5.778   5.476   0.930  1.00  0.00     0.044 C 
ENDBRANCH  18  20
ENDBRANCH  17  18
ENDBRANCH   2  17
BRANCH   4  27
ATOM     27  C   UNL     1       3.787   0.183  -0.388  1.00  0.00     0.158 C 
BRANCH  27  28
ATOM     28  O   UNL     1       4.238   0.794  -1.609  1.00  0.00    -0.387 OA
ATOM     29  H   UNL     1       3.595   0.567  -2.302  1.00  0.00     0.211 HD
ENDBRANCH  27  28
BRANCH  27  30
ATOM     30  C   UNL     1       4.782  -0.948  -0.012  1.00  0.00     0.118 C 
BRANCH  30  31
ATOM     31  N   UNL     1       6.116  -0.390   0.261  1.00  0.00    -0.309 NA
ATOM     32  H   UNL     1       6.311   0.315  -0.457  1.00  0.00     0.123 HD
BRANCH  31  33
ATOM     33  C   UNL     1       7.226  -1.354   0.332  1.00  0.00     0.010 C 
ATOM     34  C   UNL     1       7.598  -1.872  -1.069  1.00  0.00     0.027 C 
ATOM     35  C   UNL     1       6.925  -2.535   1.268  1.00  0.00     0.027 C 
ATOM     36  C   UNL     1       8.429  -0.576   0.898  1.00  0.00     0.027 C 
ENDBRANCH  31  33
ENDBRANCH  30  31
ENDBRANCH  27  30
ENDBRANCH   4  27
TORSDOF 11
