REMARK SMILES CCN(CC)CCCOC(=O)C1(c2ccccc2)CC2CCC1C2
REMARK SMILES IDX 7 1 6 2 3 3 2 4 1 5 4 6 5 7 8 8 9 9 10 10 11 11 12 12 19 13
REMARK SMILES IDX 23 14 20 15 22 16 24 17 21 18 13 19 14 20 18 21 15 22 17 23
REMARK SMILES IDX 16 24
REMARK H PARENT
ROOT
ATOM      1  C   UNL     1       2.383  -1.384  -0.927  1.00  0.00     0.057 C 
ENDROOT
BRANCH   1   2
ATOM      2  C   UNL     1       2.570  -0.048  -0.193  1.00  0.00     0.088 C 
BRANCH   2   3
ATOM      3  N   UNL     1       3.721  -0.046   0.726  1.00  0.00    -0.304 NA
BRANCH   3   4
ATOM      4  C   UNL     1       3.646   1.066   1.688  1.00  0.00     0.081 C 
ATOM      5  C   UNL     1       3.624   2.472   1.093  1.00  0.00     0.021 C 
ENDBRANCH   3   4
BRANCH   3   6
ATOM      6  C   UNL     1       5.018  -0.102   0.038  1.00  0.00     0.081 C 
ATOM      7  C   UNL     1       5.651  -1.474   0.230  1.00  0.00     0.021 C 
ENDBRANCH   3   6
ENDBRANCH   2   3
ENDBRANCH   1   2
BRANCH   1   8
ATOM      8  C   UNL     1       1.142  -1.365  -1.817  1.00  0.00     0.234 C 
BRANCH   8   9
ATOM      9  O   UNL     1      -0.016  -1.174  -0.997  1.00  0.00    -0.465 OA
BRANCH   9  10
ATOM     10  C   UNL     1      -1.154  -0.834  -1.672  1.00  0.00     0.316 C 
ATOM     11  O   UNL     1      -1.237  -0.768  -2.892  1.00  0.00    -0.251 OA
BRANCH  10  12
ATOM     12  C   UNL     1      -2.293  -0.491  -0.681  1.00  0.00     0.096 C 
ATOM     13  C   UNL     1      -2.548  -1.709   0.273  1.00  0.00     0.027 C 
ATOM     14  C   UNL     1      -3.663  -0.460  -1.456  1.00  0.00     0.011 C 
ATOM     15  C   UNL     1      -3.954  -2.211  -0.115  1.00  0.00    -0.009 C 
ATOM     16  C   UNL     1      -4.824  -0.018  -0.537  1.00  0.00     0.005 C 
ATOM     17  C   UNL     1      -3.989  -1.951  -1.614  1.00  0.00     0.008 C 
ATOM     18  C   UNL     1      -4.997  -1.213   0.407  1.00  0.00     0.004 C 
BRANCH  12  19
ATOM     19  C   UNL     1      -1.919   0.837  -0.010  1.00  0.00    -0.030 A 
ATOM     20  C   UNL     1      -2.154   2.058  -0.668  1.00  0.00     0.005 A 
ATOM     21  C   UNL     1      -1.243   0.882   1.222  1.00  0.00     0.005 A 
ATOM     22  C   UNL     1      -1.776   3.275  -0.096  1.00  0.00     0.000 A 
ATOM     23  C   UNL     1      -0.863   2.099   1.794  1.00  0.00     0.000 A 
ATOM     24  C   UNL     1      -1.135   3.296   1.138  1.00  0.00     0.000 A 
ENDBRANCH  12  19
ENDBRANCH  10  12
ENDBRANCH   9  10
ENDBRANCH   8   9
ENDBRANCH   1   8
TORSDOF 9
