REMARK SMILES O=C1CN=C(c2ccccn2)c2cc(Br)ccc2N1
REMARK SMILES IDX 15 1 14 2 16 3 17 4 18 5 12 6 13 7 5 8 4 9 6 10 7 11 11 12
REMARK SMILES IDX 8 13 10 14 9 15 3 16 19 18 2 19 1 20
REMARK H PARENT 19 21
REMARK Flexibility Score:   20.900
ROOT
ATOM      1  Br  UNL     1      -0.781   4.397   1.438  1.00  0.00    -0.051 Br
ATOM      2  C   UNL     1      -1.287   2.723   0.719  1.00  0.00     0.018 A 
ATOM      3  C   UNL     1      -2.485   2.605   0.024  1.00  0.00     0.018 A 
ATOM      4  C   UNL     1      -2.864   1.364  -0.492  1.00  0.00     0.028 A 
ATOM      5  C   UNL     1      -2.053   0.235  -0.306  1.00  0.00     0.050 A 
ATOM      6  C   UNL     1      -0.804   0.379   0.323  1.00  0.00     0.027 A 
ATOM      7  C   UNL     1      -0.446   1.623   0.871  1.00  0.00     0.028 A 
ENDROOT
BRANCH   6   8
ATOM      8  C   UNL     1       0.203  -0.730   0.337  1.00  0.00     0.093 C 
ATOM      9  N   UNL     1      -0.069  -1.957   0.641  1.00  0.00    -0.272 NA
BRANCH   8  10
ATOM     10  C   UNL     1       1.624  -0.413  -0.060  1.00  0.00     0.089 A 
ATOM     11  C   UNL     1       2.642  -1.322   0.216  1.00  0.00     0.030 A 
ATOM     12  N   UNL     1       1.835   0.757  -0.714  1.00  0.00    -0.255 NA
ATOM     13  C   UNL     1       3.938  -1.012  -0.186  1.00  0.00     0.004 A 
ATOM     14  C   UNL     1       3.103   1.026  -1.093  1.00  0.00     0.112 A 
ATOM     15  C   UNL     1       4.176   0.184  -0.852  1.00  0.00     0.020 A 
ENDBRANCH   8  10
BRANCH   9  16
ATOM     16  C   UNL     1      -1.439  -2.324   0.978  1.00  0.00     0.243 CG0
ATOM     17  G   UNL     1      -2.329  -2.229  -0.250  1.00  0.00     0.000 G0
ENDBRANCH   9  16
ENDBRANCH   6   8
BRANCH   5  18
ATOM     18  N   UNL     1      -2.572  -0.984  -0.769  1.00  0.00    -0.324 N 
ATOM     19  C   UNL     1      -2.329  -2.229  -0.250  1.00  0.00     0.246 CG0
ATOM     20  O   UNL     1      -2.908  -3.206  -0.727  1.00  0.00    -0.273 OA
ATOM     21  H   UNL     1      -3.340  -0.977  -1.428  1.00  0.00     0.170 HD
ATOM     22  G   UNL     1      -1.439  -2.324   0.978  1.00  0.00     0.000 G0
ENDBRANCH   5  18
TORSDOF 1
