REMARK SMILES CCN(CC)CCNC(=O)c1cc(Br)c(N)cc1OC
REMARK SMILES IDX 7 1 6 2 3 3 2 4 1 5 4 6 5 7 8 8 9 9 10 10 11 12 18 13 12 14
REMARK SMILES IDX 17 15 13 16 15 17 14 18 19 19 20 20 16 21
REMARK H PARENT 8 11 16 22 16 23
ROOT
ATOM      1  C   UNL     1       1.095  -0.806  -0.080  1.00  0.00     0.131 C 
ENDROOT
BRANCH   1   2
ATOM      2  C   UNL     1       1.906   0.502  -0.061  1.00  0.00     0.105 C 
BRANCH   2   3
ATOM      3  N   UNL     1       3.342   0.424  -0.373  1.00  0.00    -0.302 NA
BRANCH   3   4
ATOM      4  C   UNL     1       3.620   0.008  -1.748  1.00  0.00     0.081 C 
ATOM      5  C   UNL     1       5.036   0.359  -2.193  1.00  0.00     0.021 C 
ENDBRANCH   3   4
BRANCH   3   6
ATOM      6  C   UNL     1       4.151  -0.208   0.675  1.00  0.00     0.081 C 
ATOM      7  C   UNL     1       4.346  -1.720   0.602  1.00  0.00     0.021 C 
ENDBRANCH   3   6
ENDBRANCH   2   3
ENDBRANCH   1   2
BRANCH   1   8
ATOM      8  N   UNL     1      -0.332  -0.563   0.024  1.00  0.00    -0.351 N 
ATOM      9  C   UNL     1      -0.946  -0.292   1.224  1.00  0.00     0.255 C 
ATOM     10  O   UNL     1      -0.340  -0.329   2.292  1.00  0.00    -0.269 OA
ATOM     11  H   UNL     1      -0.866  -0.409  -0.826  1.00  0.00     0.163 HD
BRANCH   9  12
ATOM     12  C   UNL     1      -2.406   0.050   1.200  1.00  0.00     0.083 A 
ATOM     13  C   UNL     1      -3.143   0.358   0.037  1.00  0.00     0.133 A 
ATOM     14  C   UNL     1      -3.056   0.052   2.446  1.00  0.00     0.035 A 
ATOM     15  C   UNL     1      -4.510   0.662   0.156  1.00  0.00     0.074 A 
ATOM     16  C   UNL     1      -4.413   0.358   2.541  1.00  0.00     0.042 A 
ATOM     17  C   UNL     1      -5.149   0.712   1.403  1.00  0.00     0.050 A 
ATOM     18  Br  UNL     1      -5.226   0.316   4.258  1.00  0.00    -0.049 Br
BRANCH  13  19
ATOM     19  O   UNL     1      -2.480   0.335  -1.166  1.00  0.00    -0.496 OA
ATOM     20  C   UNL     1      -3.188   0.754  -2.328  1.00  0.00     0.278 C 
ENDBRANCH  13  19
BRANCH  17  21
ATOM     21  N   UNL     1      -6.541   0.903   1.446  1.00  0.00    -0.398 N 
ATOM     22  H   UNL     1      -6.876   1.161   2.373  1.00  0.00     0.156 HD
ATOM     23  H   UNL     1      -6.912   1.503   0.717  1.00  0.00     0.156 HD
ENDBRANCH  17  21
ENDBRANCH   9  12
ENDBRANCH   1   8
TORSDOF 8
