REMARK SMILES Oc1c(Br)cc(Br)c2cccnc12
REMARK SMILES IDX 2 1 13 2 12 3 11 4 10 5 9 6 8 7 6 8 7 9 5 10 3 11 4 12 1 13
REMARK H PARENT 1 14
ROOT
ATOM      1  C   UNL     1       1.610  -0.520  -0.151  1.00  0.00     0.156 A 
ATOM      2  C   UNL     1       0.225  -0.610  -0.035  1.00  0.00     0.114 A 
ATOM      3  N   UNL     1      -0.322  -1.845  -0.019  1.00  0.00    -0.252 NA
ATOM      4  C   UNL     1      -1.663  -1.944   0.094  1.00  0.00     0.112 A 
ATOM      5  C   UNL     1      -2.504  -0.856   0.193  1.00  0.00     0.021 A 
ATOM      6  C   UNL     1      -1.934   0.413   0.176  1.00  0.00     0.013 A 
ATOM      7  C   UNL     1      -0.535   0.575   0.060  1.00  0.00     0.018 A 
ATOM      8  C   UNL     1       0.147   1.820   0.033  1.00  0.00     0.028 A 
ATOM      9  Br  UNL     1      -0.773   3.483   0.154  1.00  0.00    -0.050 Br
ATOM     10  C   UNL     1       1.538   1.883  -0.085  1.00  0.00     0.036 A 
ATOM     11  C   UNL     1       2.272   0.706  -0.177  1.00  0.00     0.063 A 
ATOM     12  Br  UNL     1       4.156   0.818  -0.336  1.00  0.00    -0.047 Br
ENDROOT
BRANCH   1  13
ATOM     13  O   UNL     1       2.324  -1.696  -0.242  1.00  0.00    -0.505 OA
ATOM     14  H   UNL     1       1.640  -2.399  -0.201  1.00  0.00     0.293 HD
ENDBRANCH   1  13
TORSDOF 1
