REMARK SMILES CC(CCc1ccccc1)NC(C)C(O)c1cc(I)c(O)c(I)c1
REMARK SMILES IDX 11 1 2 3 1 4 3 5 4 6 5 7 6 8 10 9 7 10 9 11 8 12 12 13 13 14
REMARK SMILES IDX 14 15 15 16 16 18 17 19 24 20 18 21 22 22 20 23 19 24 23 25
REMARK SMILES IDX 21 26
REMARK H PARENT 11 2 15 17 21 27
ROOT
ATOM      1  N   UNL     1      -0.009  -0.206  -1.246  1.00  0.00    -0.309 NA
ATOM      2  H   UNL     1      -0.235  -1.178  -1.029  1.00  0.00     0.123 HD
ENDROOT
BRANCH   1   3
ATOM      3  C   UNL     1      -0.819   0.652  -0.361  1.00  0.00     0.051 C 
ATOM      4  C   UNL     1      -0.874   2.100  -0.850  1.00  0.00     0.024 C 
BRANCH   3   5
ATOM      5  C   UNL     1      -2.241   0.033  -0.319  1.00  0.00     0.023 C 
BRANCH   5   6
ATOM      6  C   UNL     1      -3.184   0.724   0.674  1.00  0.00     0.037 C 
BRANCH   6   7
ATOM      7  C   UNL     1      -4.474  -0.043   0.839  1.00  0.00    -0.048 A 
ATOM      8  C   UNL     1      -5.509   0.100  -0.095  1.00  0.00     0.004 A 
ATOM      9  C   UNL     1      -4.646  -0.925   1.915  1.00  0.00     0.004 A 
ATOM     10  C   UNL     1      -6.696  -0.620   0.048  1.00  0.00     0.000 A 
ATOM     11  C   UNL     1      -5.834  -1.644   2.056  1.00  0.00     0.000 A 
ATOM     12  C   UNL     1      -6.858  -1.491   1.124  1.00  0.00     0.000 A 
ENDBRANCH   6   7
ENDBRANCH   5   6
ENDBRANCH   3   5
ENDBRANCH   1   3
BRANCH   1  13
ATOM     13  C   UNL     1       1.472  -0.081  -1.204  1.00  0.00     0.084 C 
ATOM     14  C   UNL     1       1.940   0.960  -2.229  1.00  0.00     0.027 C 
BRANCH  13  15
ATOM     15  C   UNL     1       2.135   0.080   0.210  1.00  0.00     0.161 C 
BRANCH  15  16
ATOM     16  O   UNL     1       1.955   1.418   0.694  1.00  0.00    -0.387 OA
ATOM     17  H   UNL     1       2.584   1.983   0.213  1.00  0.00     0.211 HD
ENDBRANCH  15  16
BRANCH  15  18
ATOM     18  C   UNL     1       3.613  -0.270   0.367  1.00  0.00    -0.016 A 
ATOM     19  C   UNL     1       4.378  -0.912  -0.618  1.00  0.00     0.025 A 
ATOM     20  C   UNL     1       4.240   0.023   1.596  1.00  0.00     0.025 A 
ATOM     21  C   UNL     1       5.728  -1.225  -0.396  1.00  0.00     0.056 A 
ATOM     22  C   UNL     1       5.585  -0.289   1.819  1.00  0.00     0.056 A 
ATOM     23  C   UNL     1       6.337  -0.912   0.821  1.00  0.00     0.142 A 
ATOM     24  I   UNL     1       6.779  -2.172  -1.943  1.00  0.00    -0.040 I 
ATOM     25  I   UNL     1       6.425   0.198   3.671  1.00  0.00    -0.040 I 
BRANCH  23  26
ATOM     26  O   UNL     1       7.655  -1.224   1.018  1.00  0.00    -0.506 OA
ATOM     27  H   UNL     1       7.901  -0.939   1.916  1.00  0.00     0.293 HD
ENDBRANCH  23  26
ENDBRANCH  15  18
ENDBRANCH  13  15
ENDBRANCH   1  13
TORSDOF 9
