REMARK SMILES CCCCOc1ccc(CC(=O)NO)cc1
REMARK SMILES IDX 6 1 7 2 8 3 9 4 15 5 16 6 5 7 4 8 3 9 2 10 1 11 10 12 11 13
REMARK SMILES IDX 12 14 13 15 14 17
REMARK H PARENT 13 16 14 18
ROOT
ATOM      1  C   UNL     1      -0.176  -0.207  -0.667  1.00  0.00     0.119 A 
ATOM      2  C   UNL     1       0.038   1.170  -0.661  1.00  0.00     0.047 A 
ATOM      3  C   UNL     1       1.307   1.687  -0.945  1.00  0.00     0.008 A 
ATOM      4  C   UNL     1       2.378   0.831  -1.237  1.00  0.00    -0.038 A 
ATOM      5  C   UNL     1       2.158  -0.550  -1.245  1.00  0.00     0.008 A 
ATOM      6  C   UNL     1       0.890  -1.061  -0.960  1.00  0.00     0.047 A 
ENDROOT
BRANCH   1   7
ATOM      7  O   UNL     1      -1.359  -0.841  -0.406  1.00  0.00    -0.494 OA
BRANCH   7   8
ATOM      8  C   UNL     1      -2.490  -0.018  -0.125  1.00  0.00     0.229 C 
BRANCH   8   9
ATOM      9  C   UNL     1      -3.703  -0.914   0.128  1.00  0.00     0.041 C 
BRANCH   9  10
ATOM     10  C   UNL     1      -3.530  -1.785   1.375  1.00  0.00     0.000 C 
ATOM     11  C   UNL     1      -4.764  -2.635   1.633  1.00  0.00     0.004 C 
ENDBRANCH   9  10
ENDBRANCH   8   9
ENDBRANCH   7   8
ENDBRANCH   1   7
BRANCH   4  12
ATOM     12  C   UNL     1       3.751   1.394  -1.518  1.00  0.00     0.137 C 
BRANCH  12  13
ATOM     13  C   UNL     1       4.407   2.035  -0.311  1.00  0.00     0.247 C 
ATOM     14  O   UNL     1       4.918   3.155  -0.343  1.00  0.00    -0.272 OA
ATOM     15  N   UNL     1       4.454   1.248   0.820  1.00  0.00    -0.238 N 
ATOM     16  H   UNL     1       3.721   0.568   1.002  1.00  0.00     0.198 HD
BRANCH  15  17
ATOM     17  O   UNL     1       4.975   1.900   1.967  1.00  0.00    -0.289 OA
ATOM     18  H   UNL     1       5.242   2.776   1.610  1.00  0.00     0.246 HD
ENDBRANCH  15  17
ENDBRANCH  12  13
ENDBRANCH   4  12
TORSDOF 7
