REMARK SMILES CCCCC(C(=O)O)C(=O)N(Nc1ccccc1)c1ccccc1
REMARK SMILES IDX 5 1 4 2 3 3 2 4 1 5 6 6 7 7 8 8 9 10 10 11 11 12 12 13 13 15
REMARK SMILES IDX 14 16 18 17 15 18 17 19 16 20 19 21 20 22 24 23 21 24 23 25
REMARK SMILES IDX 22 26
REMARK H PARENT 8 9 12 14
ROOT
ATOM      1  C   UNL     1       1.457  -0.291  -0.574  1.00  0.00     0.190 C 
ENDROOT
BRANCH   1   2
ATOM      2  C   UNL     1       2.701  -0.290   0.344  1.00  0.00     0.025 C 
BRANCH   2   3
ATOM      3  C   UNL     1       2.411   0.345   1.712  1.00  0.00     0.001 C 
BRANCH   3   4
ATOM      4  C   UNL     1       3.595   0.267   2.678  1.00  0.00    -0.003 C 
ATOM      5  C   UNL     1       4.807   1.067   2.225  1.00  0.00     0.004 C 
ENDBRANCH   3   4
ENDBRANCH   2   3
ENDBRANCH   1   2
BRANCH   1   6
ATOM      6  C   UNL     1       1.789  -0.637  -2.007  1.00  0.00     0.316 C 
ATOM      7  O   UNL     1       0.986  -0.618  -2.932  1.00  0.00    -0.252 OA
BRANCH   6   8
ATOM      8  O   UNL     1       3.069  -0.969  -2.248  1.00  0.00    -0.481 OA
ATOM      9  H   UNL     1       3.104  -1.179  -3.205  1.00  0.00     0.296 HD
ENDBRANCH   6   8
ENDBRANCH   1   6
BRANCH   1  10
ATOM     10  C   UNL     1       0.375  -1.250  -0.058  1.00  0.00     0.260 C 
ATOM     11  O   UNL     1       0.726  -2.214   0.630  1.00  0.00    -0.272 OA
BRANCH  10  12
ATOM     12  N   UNL     1      -0.961  -0.990  -0.435  1.00  0.00    -0.223 N 
BRANCH  12  13
ATOM     13  N   UNL     1      -1.228  -0.005  -1.417  1.00  0.00    -0.291 N 
ATOM     14  H   UNL     1      -0.696  -0.130  -2.286  1.00  0.00     0.188 HD
BRANCH  13  15
ATOM     15  C   UNL     1      -1.387   1.330  -0.984  1.00  0.00     0.055 A 
ATOM     16  C   UNL     1      -1.733   1.677   0.329  1.00  0.00     0.027 A 
ATOM     17  C   UNL     1      -1.303   2.356  -1.937  1.00  0.00     0.027 A 
ATOM     18  C   UNL     1      -1.929   3.013   0.692  1.00  0.00     0.002 A 
ATOM     19  C   UNL     1      -1.499   3.692  -1.578  1.00  0.00     0.002 A 
ATOM     20  C   UNL     1      -1.806   4.021  -0.261  1.00  0.00     0.000 A 
ENDBRANCH  13  15
ENDBRANCH  12  13
BRANCH  12  21
ATOM     21  C   UNL     1      -2.100  -1.796  -0.068  1.00  0.00     0.066 A 
ATOM     22  C   UNL     1      -2.047  -2.757   0.953  1.00  0.00     0.028 A 
ATOM     23  C   UNL     1      -3.340  -1.622  -0.715  1.00  0.00     0.028 A 
ATOM     24  C   UNL     1      -3.170  -3.521   1.299  1.00  0.00     0.002 A 
ATOM     25  C   UNL     1      -4.464  -2.383  -0.371  1.00  0.00     0.002 A 
ATOM     26  C   UNL     1      -4.377  -3.337   0.635  1.00  0.00     0.000 A 
ENDBRANCH  12  21
ENDBRANCH  10  12
ENDBRANCH   1  10
TORSDOF 10
