REMARK SMILES CCCC(=O)N1CCCN(c2nc(N)c3cc(OC)c(OC)cc3n2)CC1
REMARK SMILES IDX 27 1 6 2 4 3 5 4 3 5 2 6 1 7 7 8 26 10 10 11 9 12 8 13 11 15
REMARK SMILES IDX 25 16 12 17 24 18 13 19 23 20 15 21 20 22 16 23 17 24 14 25
REMARK SMILES IDX 21 28 22 29 18 30 19 31
REMARK H PARENT 14 26 14 27
REMARK Flexibility Score:   80.900
ROOT
ATOM      1  C   UNL     1      -2.240   0.848  -1.937  1.00  0.00     0.141 C 
ENDROOT
BRANCH   1   2
ATOM      2  N   UNL     1      -2.846   1.147  -0.630  1.00  0.00    -0.341 N 
BRANCH   2   3
ATOM      3  C   UNL     1      -4.227   1.037  -0.514  1.00  0.00     0.222 C 
ATOM      4  O   UNL     1      -4.934   0.731  -1.475  1.00  0.00    -0.275 OA
BRANCH   3   5
ATOM      5  C   UNL     1      -4.828   1.328   0.854  1.00  0.00     0.100 C 
BRANCH   5   6
ATOM      6  C   UNL     1      -6.355   1.219   0.848  1.00  0.00     0.006 C 
ATOM      7  C   UNL     1      -6.943   1.509   2.219  1.00  0.00     0.004 C 
ENDBRANCH   5   6
ENDBRANCH   3   5
ENDBRANCH   2   3
BRANCH   2   8
ATOM      8  C   UNL     1      -1.920   1.191   0.500  1.00  0.00     0.121 CG0
ATOM      9  G   UNL     1      -1.643  -0.163   1.158  1.00  0.00     0.000 G0
ENDBRANCH   2   8
ENDBRANCH   1   2
BRANCH   1  10
ATOM     10  C   UNL     1      -1.917  -0.642  -2.120  1.00  0.00     0.141 C 
BRANCH  10  11
ATOM     11  N   UNL     1      -1.029  -1.150  -1.068  1.00  0.00    -0.339 N 
BRANCH  11  12
ATOM     12  C   UNL     1      -1.616  -1.389   0.243  1.00  0.00     0.121 C 
BRANCH  12  13
ATOM     13  C   UNL     1      -1.643  -0.163   1.158  1.00  0.00     0.043 CG0
ATOM     14  G   UNL     1      -1.920   1.191   0.500  1.00  0.00     0.000 G0
ENDBRANCH  12  13
ENDBRANCH  11  12
BRANCH  11  15
ATOM     15  C   UNL     1       0.324  -0.888  -1.160  1.00  0.00     0.227 A 
ATOM     16  N   UNL     1       1.104  -1.161  -0.105  1.00  0.00    -0.213 NA
ATOM     17  N   UNL     1       0.807  -0.382  -2.303  1.00  0.00    -0.195 NA
ATOM     18  C   UNL     1       2.417  -0.921  -0.191  1.00  0.00     0.082 A 
ATOM     19  C   UNL     1       2.123  -0.159  -2.387  1.00  0.00     0.137 A 
ATOM     20  C   UNL     1       3.223  -1.201   0.906  1.00  0.00     0.079 A 
ATOM     21  C   UNL     1       3.009  -0.402  -1.338  1.00  0.00     0.047 A 
ATOM     22  C   UNL     1       4.606  -0.979   0.886  1.00  0.00     0.162 A 
ATOM     23  C   UNL     1       4.404  -0.160  -1.374  1.00  0.00     0.064 A 
ATOM     24  C   UNL     1       5.206  -0.459  -0.272  1.00  0.00     0.161 A 
BRANCH  19  25
ATOM     25  N   UNL     1       2.555   0.358  -3.615  1.00  0.00    -0.383 N 
ATOM     26  H   UNL     1       3.269  -0.232  -4.027  1.00  0.00     0.158 HD
ATOM     27  H   UNL     1       1.735   0.411  -4.215  1.00  0.00     0.158 HD
ENDBRANCH  19  25
BRANCH  22  28
ATOM     28  O   UNL     1       5.451  -1.253   1.933  1.00  0.00    -0.493 OA
ATOM     29  C   UNL     1       4.863  -1.632   3.172  1.00  0.00     0.278 C 
ENDBRANCH  22  28
BRANCH  24  30
ATOM     30  O   UNL     1       6.564  -0.270  -0.223  1.00  0.00    -0.493 OA
ATOM     31  C   UNL     1       7.223   0.094  -1.429  1.00  0.00     0.278 C 
ENDBRANCH  24  30
ENDBRANCH  11  15
ENDBRANCH  10  11
ENDBRANCH   1  10
TORSDOF 7
