REMARK SMILES CC(C)(C)NCC(O)COc1ccccc1C#N
REMARK SMILES IDX 6 1 5 2 2 4 1 5 3 6 4 7 7 8 8 9 9 11 10 12 11 13 16 14 12 15
REMARK SMILES IDX 15 16 17 17 13 18 14 19 18 20
REMARK H PARENT 5 3 8 10
ROOT
ATOM      1  C   UNL     1      -1.253  -1.189  -0.231  1.00  0.00     0.116 C 
ENDROOT
BRANCH   1   2
ATOM      2  N   UNL     1      -2.617  -0.900  -0.710  1.00  0.00    -0.309 NA
ATOM      3  H   UNL     1      -3.012  -1.760  -1.097  1.00  0.00     0.123 HD
BRANCH   2   4
ATOM      4  C   UNL     1      -3.567  -0.365   0.287  1.00  0.00     0.010 C 
ATOM      5  C   UNL     1      -3.947  -1.438   1.322  1.00  0.00     0.027 C 
ATOM      6  C   UNL     1      -4.834   0.018  -0.502  1.00  0.00     0.027 C 
ATOM      7  C   UNL     1      -3.048   0.892   1.001  1.00  0.00     0.027 C 
ENDBRANCH   2   4
ENDBRANCH   1   2
BRANCH   1   8
ATOM      8  C   UNL     1      -0.273  -0.075  -0.649  1.00  0.00     0.165 C 
BRANCH   8   9
ATOM      9  O   UNL     1      -0.433   0.150  -2.059  1.00  0.00    -0.388 OA
ATOM     10  H   UNL     1      -1.404   0.181  -2.184  1.00  0.00     0.211 HD
ENDBRANCH   8   9
BRANCH   8  11
ATOM     11  C   UNL     1       1.179  -0.471  -0.352  1.00  0.00     0.262 C 
BRANCH  11  12
ATOM     12  O   UNL     1       1.996   0.704  -0.418  1.00  0.00    -0.489 OA
BRANCH  12  13
ATOM     13  C   UNL     1       3.342   0.567  -0.203  1.00  0.00     0.137 A 
ATOM     14  C   UNL     1       4.098   1.751  -0.207  1.00  0.00     0.094 A 
ATOM     15  C   UNL     1       3.992  -0.653   0.011  1.00  0.00     0.048 A 
ATOM     16  C   UNL     1       5.485   1.703   0.001  1.00  0.00     0.023 A 
ATOM     17  C   UNL     1       3.478   3.031  -0.410  1.00  0.00     0.103 C 
ATOM     18  C   UNL     1       5.375  -0.694   0.217  1.00  0.00     0.004 A 
ATOM     19  C   UNL     1       6.121   0.481   0.212  1.00  0.00     0.002 A 
ATOM     20  N   UNL     1       3.025   4.090  -0.555  1.00  0.00    -0.192 NA
ENDBRANCH  12  13
ENDBRANCH  11  12
ENDBRANCH   8  11
ENDBRANCH   1   8
TORSDOF 7
