REMARK SMILES CCCCOC(=O)CC(c1ccccc1)N1CCCCC1
REMARK SMILES IDX 5 1 4 2 3 3 2 4 1 5 6 6 7 7 8 8 9 9 16 10 17 11 21 12 18 13
REMARK SMILES IDX 20 14 19 15 10 16 11 17 15 18 12 19 14 20 13 21
REMARK H PARENT
ROOT
ATOM      1  O   UNL     1       2.212   0.431   0.764  1.00  0.00    -0.466 OA
ENDROOT
BRANCH   1   2
ATOM      2  C   UNL     1       3.378  -0.341   1.091  1.00  0.00     0.233 C 
BRANCH   2   3
ATOM      3  C   UNL     1       4.525   0.024   0.153  1.00  0.00     0.041 C 
BRANCH   3   4
ATOM      4  C   UNL     1       5.799  -0.740   0.503  1.00  0.00     0.000 C 
ATOM      5  C   UNL     1       6.942  -0.374  -0.430  1.00  0.00     0.004 C 
ENDBRANCH   3   4
ENDBRANCH   2   3
ENDBRANCH   1   2
BRANCH   1   6
ATOM      6  C   UNL     1       1.396  -0.101  -0.186  1.00  0.00     0.307 C 
ATOM      7  O   UNL     1       1.610  -1.133  -0.809  1.00  0.00    -0.252 OA
BRANCH   6   8
ATOM      8  C   UNL     1       0.191   0.781  -0.402  1.00  0.00     0.146 C 
BRANCH   8   9
ATOM      9  C   UNL     1      -1.113  -0.040  -0.303  1.00  0.00     0.098 C 
BRANCH   9  10
ATOM     10  N   UNL     1      -2.355   0.741  -0.614  1.00  0.00    -0.296 NA
ATOM     11  C   UNL     1      -3.529  -0.162  -0.656  1.00  0.00     0.085 C 
ATOM     12  C   UNL     1      -2.258   1.494  -1.876  1.00  0.00     0.085 C 
ATOM     13  C   UNL     1      -4.832   0.600  -0.903  1.00  0.00     0.016 C 
ATOM     14  C   UNL     1      -3.528   2.295  -2.175  1.00  0.00     0.016 C 
ATOM     15  C   UNL     1      -4.762   1.407  -2.189  1.00  0.00     0.003 C 
ENDBRANCH   9  10
BRANCH   9  16
ATOM     16  C   UNL     1      -1.188  -0.645   1.107  1.00  0.00    -0.030 A 
ATOM     17  C   UNL     1      -1.475   0.153   2.227  1.00  0.00     0.005 A 
ATOM     18  C   UNL     1      -0.943  -2.014   1.300  1.00  0.00     0.005 A 
ATOM     19  C   UNL     1      -1.519  -0.405   3.505  1.00  0.00     0.000 A 
ATOM     20  C   UNL     1      -0.985  -2.569   2.580  1.00  0.00     0.000 A 
ATOM     21  C   UNL     1      -1.274  -1.765   3.681  1.00  0.00     0.000 A 
ENDBRANCH   9  16
ENDBRANCH   8   9
ENDBRANCH   6   8
ENDBRANCH   1   6
TORSDOF 8
