REMARK SMILES C=C1CC[C@H](O)C/C1=C/C=C1\CCC[C@]2(C)[C@@H]([C@H](C)CCCC(C)(C)O)CC[C@@H]12
REMARK SMILES IDX 20 1 18 2 19 3 17 4 27 5 15 6 28 7 14 8 29 9 13 10 11 11
REMARK SMILES IDX 12 12 10 13 16 14 9 15 8 16 7 17 2 18 5 19 3 20 1 21 4 22
REMARK SMILES IDX 6 23 21 25 22 26 23 27 24 28 25 29 26 30
REMARK H PARENT 6 24 26 31
ROOT
ATOM      1  C   UNL     1       3.735   0.681   0.269  1.00  0.00     0.004 C 
ENDROOT
BRANCH   1   2
ATOM      2  C   UNL     1       2.853   0.710  -1.001  1.00  0.00    -0.011 C 
ATOM      3  C   UNL     1       2.881  -0.634  -1.736  1.00  0.00     0.008 C 
BRANCH   2   4
ATOM      4  C   UNL     1       1.443   1.303  -0.701  1.00  0.00    -0.002 C 
ATOM      5  C   UNL     1       0.593   1.561  -1.973  1.00  0.00     0.005 C 
ATOM      6  C   UNL     1       0.450   0.634   0.302  1.00  0.00    -0.023 C 
ATOM      7  C   UNL     1      -0.877   1.459  -1.552  1.00  0.00     0.009 C 
ATOM      8  C   UNL     1       0.807   0.850   1.795  1.00  0.00     0.008 C 
ATOM      9  C   UNL     1      -0.842   1.441  -0.023  1.00  0.00     0.021 C 
ATOM     10  C   UNL     1      -0.392   1.236   2.679  1.00  0.00     0.005 C 
ATOM     11  C   UNL     1      -2.044   0.953   0.763  1.00  0.00    -0.067 C 
ATOM     12  C   UNL     1      -1.731   0.650   2.219  1.00  0.00     0.031 C 
ATOM     13  C   UNL     1      -3.268   0.812   0.216  1.00  0.00    -0.000 C 
ATOM     14  C   UNL     1       0.276  -0.879   0.036  1.00  0.00     0.012 C 
BRANCH  13  15
ATOM     15  C   UNL     1      -4.444   0.301   0.894  1.00  0.00     0.004 C 
ATOM     16  C   UNL     1      -5.698   0.237   0.402  1.00  0.00    -0.043 C 
ATOM     17  C   UNL     1      -6.809  -0.430   1.185  1.00  0.00     0.067 C 
ATOM     18  C   UNL     1      -6.143   0.727  -0.901  1.00  0.00    -0.052 C 
ATOM     19  C   UNL     1      -7.503  -1.522   0.358  1.00  0.00     0.119 C 
ATOM     20  C   UNL     1      -6.855  -0.298  -1.753  1.00  0.00     0.038 C 
ATOM     21  C   UNL     1      -6.010   2.008  -1.277  1.00  0.00     0.013 C 
ATOM     22  C   UNL     1      -7.991  -0.970  -0.983  1.00  0.00     0.037 C 
BRANCH  19  23
ATOM     23  O   UNL     1      -8.626  -2.042   1.068  1.00  0.00    -0.393 OA
ATOM     24  H   UNL     1      -8.295  -2.422   1.900  1.00  0.00     0.210 HD
ENDBRANCH  19  23
ENDBRANCH  13  15
ENDBRANCH   2   4
ENDBRANCH   1   2
BRANCH   1  25
ATOM     25  C   UNL     1       5.232   0.440   0.014  1.00  0.00     0.003 C 
BRANCH  25  26
ATOM     26  C   UNL     1       5.652  -1.026   0.205  1.00  0.00     0.034 C 
BRANCH  26  27
ATOM     27  C   UNL     1       7.173  -1.271   0.102  1.00  0.00     0.059 C 
ATOM     28  C   UNL     1       7.474  -2.755   0.342  1.00  0.00     0.042 C 
ATOM     29  C   UNL     1       7.749  -0.834  -1.249  1.00  0.00     0.042 C 
BRANCH  27  30
ATOM     30  O   UNL     1       7.820  -0.518   1.133  1.00  0.00    -0.390 OA
ATOM     31  H   UNL     1       8.774  -0.701   1.086  1.00  0.00     0.211 HD
ENDBRANCH  27  30
ENDBRANCH  26  27
ENDBRANCH  25  26
ENDBRANCH   1  25
TORSDOF 8
