REMARK SMILES CN(C)C(=O)OC1N=C(c2ccccc2)c2cc(Cl)ccc2N(C)C1=O
REMARK SMILES IDX 8 1 9 2 7 3 6 5 4 6 2 7 5 8 1 9 3 10 10 11 11 12 15 13 12 14
REMARK SMILES IDX 14 15 13 16 16 17 17 18 22 19 18 20 21 21 20 22 19 23 23 24
REMARK SMILES IDX 24 25 25 26 26 27
REMARK H PARENT
REMARK Flexibility Score:   22.900
ROOT
ATOM      1  N   UNL     1       0.001   1.179   1.474  1.00  0.00    -0.232 NA
ATOM      2  C   UNL     1      -0.974   0.704   0.772  1.00  0.00     0.079 C 
ENDROOT
BRANCH   1   3
ATOM      3  C   UNL     1       1.358   0.674   1.187  1.00  0.00     0.387 CG0
ATOM      4  G   UNL     1       1.379  -0.799   1.708  1.00  0.00     0.000 G0
BRANCH   3   5
ATOM      5  O   UNL     1       1.798   0.884  -0.155  1.00  0.00    -0.414 OA
BRANCH   5   6
ATOM      6  C   UNL     1       3.071   0.504  -0.421  1.00  0.00     0.411 C 
ATOM      7  N   UNL     1       3.406   0.687  -1.753  1.00  0.00    -0.314 N 
ATOM      8  O   UNL     1       3.830   0.035   0.416  1.00  0.00    -0.224 OA
ATOM      9  C   UNL     1       4.685   0.197  -2.231  1.00  0.00     0.150 C 
ATOM     10  C   UNL     1       2.444   1.104  -2.760  1.00  0.00     0.150 C 
ENDBRANCH   5   6
ENDBRANCH   3   5
ENDBRANCH   1   3
BRANCH   2  11
ATOM     11  C   UNL     1      -2.355   1.176   1.113  1.00  0.00     0.001 A 
ATOM     12  C   UNL     1      -3.459   0.317   1.026  1.00  0.00     0.010 A 
ATOM     13  C   UNL     1      -2.534   2.493   1.554  1.00  0.00     0.010 A 
ATOM     14  C   UNL     1      -4.734   0.786   1.350  1.00  0.00     0.001 A 
ATOM     15  C   UNL     1      -3.810   2.956   1.877  1.00  0.00     0.001 A 
ATOM     16  C   UNL     1      -4.909   2.104   1.771  1.00  0.00     0.000 A 
ENDBRANCH   2  11
BRANCH   2  17
ATOM     17  C   UNL     1      -0.811  -0.266  -0.354  1.00  0.00     0.026 A 
ATOM     18  C   UNL     1      -1.487   0.031  -1.551  1.00  0.00     0.033 A 
ATOM     19  C   UNL     1      -0.048  -1.447  -0.236  1.00  0.00     0.053 A 
ATOM     20  C   UNL     1      -1.451  -0.863  -2.614  1.00  0.00     0.041 A 
ATOM     21  C   UNL     1      -0.058  -2.345  -1.319  1.00  0.00     0.028 A 
ATOM     22  C   UNL     1      -0.751  -2.057  -2.499  1.00  0.00     0.023 A 
ATOM     23  Cl  UNL     1      -2.281  -0.495  -4.073  1.00  0.00    -0.084 Cl
BRANCH  19  24
ATOM     24  N   UNL     1       0.725  -1.762   0.923  1.00  0.00    -0.310 N 
ATOM     25  C   UNL     1       0.965  -3.157   1.264  1.00  0.00     0.153 C 
BRANCH  24  26
ATOM     26  C   UNL     1       1.379  -0.799   1.708  1.00  0.00     0.291 CG0
ATOM     27  O   UNL     1       1.952  -1.094   2.762  1.00  0.00    -0.268 OA
ATOM     28  G   UNL     1       1.358   0.674   1.187  1.00  0.00     0.000 G0
ENDBRANCH  24  26
ENDBRANCH  19  24
ENDBRANCH   2  17
TORSDOF 3
