REMARK SMILES CC1/C=C/C=C/C=C/C=C/C=C/C=C/C=C/C(O[C@@H]2O[C@H](C)[C@@H](O)[C@@H](N)[C@@H]2O)CC2OC(O)(CC(O)CC(O)CC(O)CC(=O)CCCC(=O)CC(=O)OC1C(C)CC(C)C(O)CC(=O)c1ccc(N)cc1)CC(O)C2C(=O)O
REMARK SMILES IDX 60 1 59 2 58 3 56 4 57 5 55 6 54 7 2 8 52 9 3 10 53 11 51 12
REMARK SMILES IDX 4 13 49 14 5 15 50 16 48 17 6 18 47 19 7 20 46 21 8 22 44 23
REMARK SMILES IDX 9 24 45 25 43 26 10 27 41 28 11 29 40 30 12 31 38 32 13 33
REMARK SMILES IDX 37 34 14 35 35 36 15 37 34 38 16 39 32 40 17 41 73 42 31 43
REMARK SMILES IDX 29 44 74 45 30 46 76 47 1 48 42 49 39 51 36 53 33 55 18 57
REMARK SMILES IDX 19 58 20 59 27 60 21 61 25 62 23 63 22 64 28 65 26 67 24 70
REMARK SMILES IDX 75 72 77 74 78 75 79 76 61 78 62 79 63 81 64 82 65 83 66 84
REMARK SMILES IDX 67 85 72 86 68 87 71 88 69 89 70 90
REMARK H PARENT 42 50 39 52 36 54 33 56 28 66 26 68 26 69 24 71 75 73 79 77
REMARK H PARENT 62 80 70 91 70 92
ROOT
ATOM      1  C   UNL     1      10.476  -2.537  -0.345  1.00  0.00     0.010 C 
ATOM      2  C   UNL     1      10.882  -1.052  -0.439  1.00  0.00     0.015 C 
ENDROOT
BRANCH   2   3
ATOM      3  C   UNL     1       9.706  -0.223  -1.033  1.00  0.00     0.013 C 
BRANCH   3   4
ATOM      4  C   UNL     1       8.571   0.068  -0.005  1.00  0.00     0.028 C 
ATOM      5  C   UNL     1       9.033   0.928   1.178  1.00  0.00     0.011 C 
BRANCH   4   6
ATOM      6  C   UNL     1       7.242   0.607  -0.610  1.00  0.00     0.186 C 
ATOM      7  O   UNL     1       6.723  -0.464  -1.470  1.00  0.00    -0.461 OA
ATOM      8  C   UNL     1       7.199   1.907  -1.464  1.00  0.00     0.050 C 
ATOM      9  C   UNL     1       5.628  -1.148  -1.043  1.00  0.00     0.313 C 
ATOM     10  C   UNL     1       5.760   2.434  -1.415  1.00  0.00    -0.020 C 
ATOM     11  O   UNL     1       5.060  -0.991   0.027  1.00  0.00    -0.252 OA
ATOM     12  C   UNL     1       5.231  -2.158  -2.084  1.00  0.00     0.198 C 
ATOM     13  C   UNL     1       5.339   3.559  -0.794  1.00  0.00    -0.004 C 
ATOM     14  C   UNL     1       3.972  -2.910  -1.746  1.00  0.00     0.144 C 
ATOM     15  C   UNL     1       3.941   3.886  -0.676  1.00  0.00    -0.000 C 
ATOM     16  O   UNL     1       2.931  -2.700  -2.368  1.00  0.00    -0.299 OA
ATOM     17  C   UNL     1       4.065  -3.975  -0.659  1.00  0.00     0.076 C 
ATOM     18  C   UNL     1       3.474   4.880   0.094  1.00  0.00    -0.000 C 
ATOM     19  C   UNL     1       2.700  -4.513  -0.221  1.00  0.00     0.016 C 
ATOM     20  C   UNL     1       2.053   5.118   0.281  1.00  0.00    -0.000 C 
ATOM     21  C   UNL     1       2.093  -5.490  -1.227  1.00  0.00     0.076 C 
ATOM     22  C   UNL     1       1.228   4.140   0.682  1.00  0.00    -0.000 C 
ATOM     23  C   UNL     1       0.738  -5.977  -0.756  1.00  0.00     0.135 C 
ATOM     24  C   UNL     1      -0.205   4.199   0.790  1.00  0.00    -0.000 C 
ATOM     25  O   UNL     1       0.636  -7.032  -0.129  1.00  0.00    -0.300 OA
ATOM     26  C   UNL     1      -0.462  -5.102  -1.078  1.00  0.00     0.107 C 
ATOM     27  C   UNL     1      -1.021   4.912  -0.001  1.00  0.00    -0.000 C 
ATOM     28  C   UNL     1      -1.766  -5.706  -0.558  1.00  0.00     0.124 C 
ATOM     29  C   UNL     1      -2.453   4.710  -0.002  1.00  0.00    -0.000 C 
ATOM     30  C   UNL     1      -2.990  -4.803  -0.807  1.00  0.00     0.064 C 
ATOM     31  C   UNL     1      -2.976   3.528  -0.350  1.00  0.00    -0.000 C 
ATOM     32  C   UNL     1      -3.016  -3.551   0.080  1.00  0.00     0.119 C 
ATOM     33  C   UNL     1      -4.391   3.237  -0.331  1.00  0.00    -0.000 C 
ATOM     34  C   UNL     1      -4.162  -2.558  -0.195  1.00  0.00     0.063 C 
ATOM     35  C   UNL     1      -4.873   2.043  -0.717  1.00  0.00    -0.000 C 
ATOM     36  C   UNL     1      -5.579  -3.162  -0.179  1.00  0.00     0.122 C 
ATOM     37  C   UNL     1      -6.262   1.676  -0.639  1.00  0.00    -0.002 C 
ATOM     38  C   UNL     1      -6.643  -2.073   0.053  1.00  0.00     0.097 C 
ATOM     39  C   UNL     1      -7.012   1.878   0.457  1.00  0.00     0.005 C 
ATOM     40  C   UNL     1      -8.099  -2.572   0.151  1.00  0.00     0.170 C 
ATOM     41  C   UNL     1      -8.417   1.390   0.638  1.00  0.00     0.147 C 
ATOM     42  C   UNL     1      -8.401  -3.592   1.248  1.00  0.00     0.098 C 
ATOM     43  O   UNL     1      -9.021  -1.487   0.165  1.00  0.00    -0.346 OA
ATOM     44  C   UNL     1      -8.440   0.320   1.740  1.00  0.00     0.069 C 
ATOM     45  C   UNL     1      -8.548  -2.963   2.619  1.00  0.00     0.136 C 
ATOM     46  C   UNL     1      -9.372  -0.859   1.406  1.00  0.00     0.141 C 
ATOM     47  C   UNL     1      -9.533  -1.802   2.606  1.00  0.00     0.157 C 
ATOM     48  C   UNL     1       8.216   3.000  -1.128  1.00  0.00     0.016 C 
BRANCH  28  49
ATOM     49  O   UNL     1      -2.004  -6.948  -1.235  1.00  0.00    -0.393 OA
ATOM     50  H   UNL     1      -1.319  -7.562  -0.900  1.00  0.00     0.210 HD
ENDBRANCH  28  49
BRANCH  32  51
ATOM     51  O   UNL     1      -3.044  -3.938   1.455  1.00  0.00    -0.393 OA
ATOM     52  H   UNL     1      -3.797  -4.545   1.575  1.00  0.00     0.210 HD
ENDBRANCH  32  51
BRANCH  36  53
ATOM     53  O   UNL     1      -5.787  -3.799  -1.441  1.00  0.00    -0.393 OA
ATOM     54  H   UNL     1      -6.757  -3.883  -1.561  1.00  0.00     0.210 HD
ENDBRANCH  36  53
BRANCH  40  55
ATOM     55  O   UNL     1      -8.360  -3.240  -1.093  1.00  0.00    -0.365 OA
ATOM     56  H   UNL     1      -9.331  -3.203  -1.158  1.00  0.00     0.214 HD
ENDBRANCH  40  55
BRANCH  41  57
ATOM     57  O   UNL     1      -9.167   2.521   1.091  1.00  0.00    -0.342 OA
BRANCH  57  58
ATOM     58  C   UNL     1     -10.108   3.004   0.135  1.00  0.00     0.281 C 
ATOM     59  O   UNL     1     -10.420   4.371   0.416  1.00  0.00    -0.344 OA
ATOM     60  C   UNL     1     -11.410   2.160   0.121  1.00  0.00     0.190 C 
ATOM     61  C   UNL     1     -11.089   5.002  -0.688  1.00  0.00     0.148 C 
ATOM     62  C   UNL     1     -12.613   3.031  -0.312  1.00  0.00     0.116 C 
ATOM     63  C   UNL     1     -12.160   4.085  -1.342  1.00  0.00     0.162 C 
ATOM     64  C   UNL     1     -11.726   6.280  -0.151  1.00  0.00     0.041 C 
BRANCH  60  65
ATOM     65  O   UNL     1     -11.745   1.586   1.402  1.00  0.00    -0.386 OA
ATOM     66  H   UNL     1     -12.661   1.270   1.289  1.00  0.00     0.211 HD
ENDBRANCH  60  65
BRANCH  62  67
ATOM     67  N   UNL     1     -13.700   2.150  -0.808  1.00  0.00    -0.323 NA
ATOM     68  H   UNL     1     -14.545   2.706  -0.913  1.00  0.00     0.119 HD
ATOM     69  H   UNL     1     -13.441   1.873  -1.756  1.00  0.00     0.119 HD
ENDBRANCH  62  67
BRANCH  63  70
ATOM     70  O   UNL     1     -11.605   3.386  -2.461  1.00  0.00    -0.389 OA
ATOM     71  H   UNL     1     -11.332   4.037  -3.142  1.00  0.00     0.211 HD
ENDBRANCH  63  70
ENDBRANCH  57  58
ENDBRANCH  41  57
BRANCH  45  72
ATOM     72  O   UNL     1      -7.267  -2.521   3.064  1.00  0.00    -0.392 OA
ATOM     73  H   UNL     1      -7.340  -2.278   4.008  1.00  0.00     0.210 HD
ENDBRANCH  45  72
BRANCH  47  74
ATOM     74  C   UNL     1     -10.939  -2.342   2.713  1.00  0.00     0.311 C 
ATOM     75  O   UNL     1     -11.540  -2.528   3.763  1.00  0.00    -0.252 OA
BRANCH  74  76
ATOM     76  O   UNL     1     -11.506  -2.704   1.550  1.00  0.00    -0.481 OA
ATOM     77  H   UNL     1     -12.395  -3.027   1.804  1.00  0.00     0.296 HD
ENDBRANCH  74  76
ENDBRANCH  47  74
ENDBRANCH   4   6
ENDBRANCH   3   4
ENDBRANCH   2   3
BRANCH   2  78
ATOM     78  C   UNL     1      12.213  -0.930  -1.238  1.00  0.00     0.125 C 
BRANCH  78  79
ATOM     79  O   UNL     1      13.214  -1.747  -0.611  1.00  0.00    -0.392 OA
ATOM     80  H   UNL     1      13.170  -2.632  -1.019  1.00  0.00     0.210 HD
ENDBRANCH  78  79
BRANCH  78  81
ATOM     81  C   UNL     1      12.815   0.470  -1.397  1.00  0.00     0.113 C 
BRANCH  81  82
ATOM     82  C   UNL     1      12.723   1.362  -0.175  1.00  0.00     0.165 C 
ATOM     83  O   UNL     1      11.768   2.138  -0.057  1.00  0.00    -0.294 OA
BRANCH  82  84
ATOM     84  C   UNL     1      13.774   1.374   0.886  1.00  0.00     0.018 A 
ATOM     85  C   UNL     1      14.912   0.566   0.857  1.00  0.00     0.014 A 
ATOM     86  C   UNL     1      13.610   2.259   1.959  1.00  0.00     0.014 A 
ATOM     87  C   UNL     1      15.872   0.663   1.879  1.00  0.00     0.026 A 
ATOM     88  C   UNL     1      14.571   2.352   2.972  1.00  0.00     0.026 A 
ATOM     89  C   UNL     1      15.735   1.588   2.916  1.00  0.00     0.031 A 
BRANCH  89  90
ATOM     90  N   UNL     1      16.628   1.594   3.988  1.00  0.00    -0.399 N 
ATOM     91  H   UNL     1      17.569   1.301   3.746  1.00  0.00     0.156 HD
ATOM     92  H   UNL     1      16.616   2.448   4.533  1.00  0.00     0.156 HD
ENDBRANCH  89  90
ENDBRANCH  82  84
ENDBRANCH  81  82
ENDBRANCH  78  81
ENDBRANCH   2  78
TORSDOF 21
