REMARK SMILES CC(C)(C)NCC(O)c1ccc(O)c(NC(N)=O)c1
REMARK SMILES IDX 6 1 5 2 2 4 1 5 3 6 4 7 7 8 8 9 9 11 19 12 10 13 14 14 11 15
REMARK SMILES IDX 12 16 15 17 16 18 17 19 18 20 13 24
REMARK H PARENT 5 3 8 10 15 21 17 22 17 23 13 25
ROOT
ATOM      1  C   UNL     1      -1.343  -0.993  -0.429  1.00  0.00     0.118 C 
ENDROOT
BRANCH   1   2
ATOM      2  N   UNL     1      -2.779  -0.740  -0.677  1.00  0.00    -0.309 NA
ATOM      3  H   UNL     1      -3.254  -1.636  -0.534  1.00  0.00     0.123 HD
BRANCH   2   4
ATOM      4  C   UNL     1      -3.461   0.284   0.151  1.00  0.00     0.010 C 
ATOM      5  C   UNL     1      -4.958  -0.089   0.148  1.00  0.00     0.027 C 
ATOM      6  C   UNL     1      -3.333   1.674  -0.495  1.00  0.00     0.027 C 
ATOM      7  C   UNL     1      -2.986   0.340   1.614  1.00  0.00     0.027 C 
ENDBRANCH   2   4
ENDBRANCH   1   2
BRANCH   1   8
ATOM      8  C   UNL     1      -0.391   0.057  -1.048  1.00  0.00     0.158 C 
BRANCH   8   9
ATOM      9  O   UNL     1      -0.781   0.293  -2.408  1.00  0.00    -0.387 OA
ATOM     10  H   UNL     1      -1.757   0.212  -2.395  1.00  0.00     0.211 HD
ENDBRANCH   8   9
BRANCH   8  11
ATOM     11  C   UNL     1       1.051  -0.406  -1.014  1.00  0.00    -0.016 A 
ATOM     12  C   UNL     1       1.934   0.119  -0.049  1.00  0.00     0.036 A 
ATOM     13  C   UNL     1       1.522  -1.380  -1.914  1.00  0.00     0.010 A 
ATOM     14  C   UNL     1       3.261  -0.312   0.012  1.00  0.00     0.085 A 
ATOM     15  C   UNL     1       2.835  -1.837  -1.840  1.00  0.00     0.049 A 
ATOM     16  C   UNL     1       3.683  -1.316  -0.871  1.00  0.00     0.139 A 
BRANCH  14  17
ATOM     17  N   UNL     1       4.219   0.246   0.883  1.00  0.00    -0.305 N 
ATOM     18  C   UNL     1       4.003   1.115   1.919  1.00  0.00     0.316 C 
ATOM     19  N   UNL     1       5.177   1.577   2.441  1.00  0.00    -0.351 N 
ATOM     20  O   UNL     1       2.937   1.465   2.403  1.00  0.00    -0.249 OA
ATOM     21  H   UNL     1       5.182   0.001   0.707  1.00  0.00     0.171 HD
ATOM     22  H   UNL     1       5.019   2.281   3.156  1.00  0.00     0.161 HD
ATOM     23  H   UNL     1       5.877   1.855   1.767  1.00  0.00     0.161 HD
ENDBRANCH  14  17
BRANCH  16  24
ATOM     24  O   UNL     1       4.938  -1.857  -0.782  1.00  0.00    -0.506 OA
ATOM     25  H   UNL     1       5.108  -1.978   0.169  1.00  0.00     0.293 HD
ENDBRANCH  16  24
ENDBRANCH   8  11
ENDBRANCH   1   8
TORSDOF 7
