REMARK SMILES NCCCC[C@H](NC(=O)[C@@H](N)CSCC(=O)O)C(=O)O
REMARK SMILES IDX 7 1 8 2 9 3 6 5 5 6 4 7 3 8 2 9 1 10 18 13 19 14 20 15 10 17
REMARK SMILES IDX 11 18 12 21 13 22 14 23 15 24 16 25 17 26
REMARK H PARENT 7 4 1 11 1 12 20 16 11 19 11 20 17 27
ROOT
ATOM      1  N   UNL     1      -0.234  -0.219   0.605  1.00  0.00    -0.341 N 
ATOM      2  C   UNL     1      -1.346  -0.348  -0.206  1.00  0.00     0.238 C 
ATOM      3  O   UNL     1      -1.273  -0.614  -1.401  1.00  0.00    -0.273 OA
ATOM      4  H   UNL     1      -0.406  -0.353   1.594  1.00  0.00     0.164 HD
ENDROOT
BRANCH   1   5
ATOM      5  C   UNL     1       1.082  -0.664   0.128  1.00  0.00     0.192 C 
BRANCH   5   6
ATOM      6  C   UNL     1       2.179   0.109   0.866  1.00  0.00     0.037 C 
BRANCH   6   7
ATOM      7  C   UNL     1       3.613  -0.167   0.397  1.00  0.00     0.004 C 
BRANCH   7   8
ATOM      8  C   UNL     1       3.863   0.215  -1.066  1.00  0.00     0.015 C 
BRANCH   8   9
ATOM      9  C   UNL     1       5.314  -0.005  -1.501  1.00  0.00     0.077 C 
BRANCH   9  10
ATOM     10  N   UNL     1       6.235   0.861  -0.775  1.00  0.00    -0.330 NA
ATOM     11  H   UNL     1       7.181   0.720  -1.130  1.00  0.00     0.118 HD
ATOM     12  H   UNL     1       6.006   1.837  -0.960  1.00  0.00     0.118 HD
ENDBRANCH   9  10
ENDBRANCH   8   9
ENDBRANCH   7   8
ENDBRANCH   6   7
ENDBRANCH   5   6
BRANCH   5  13
ATOM     13  C   UNL     1       1.166  -2.163   0.421  1.00  0.00     0.326 C 
ATOM     14  O   UNL     1       0.594  -2.747   1.332  1.00  0.00    -0.250 OA
BRANCH  13  15
ATOM     15  O   UNL     1       1.975  -2.832  -0.423  1.00  0.00    -0.480 OA
ATOM     16  H   UNL     1       1.913  -3.766  -0.134  1.00  0.00     0.296 HD
ENDBRANCH  13  15
ENDBRANCH   5  13
ENDBRANCH   1   5
BRANCH   2  17
ATOM     17  C   UNL     1      -2.692  -0.098   0.504  1.00  0.00     0.151 C 
BRANCH  17  18
ATOM     18  N   UNL     1      -2.726  -0.804   1.806  1.00  0.00    -0.319 NA
ATOM     19  H   UNL     1      -2.256  -1.707   1.735  1.00  0.00     0.119 HD
ATOM     20  H   UNL     1      -2.281  -0.252   2.535  1.00  0.00     0.119 HD
ENDBRANCH  17  18
BRANCH  17  21
ATOM     21  C   UNL     1      -2.904   1.423   0.618  1.00  0.00     0.099 C 
BRANCH  21  22
ATOM     22  S   UNL     1      -4.308   1.985   1.664  1.00  0.00    -0.148 SA
BRANCH  22  23
ATOM     23  C   UNL     1      -5.673   0.964   1.018  1.00  0.00     0.191 C 
BRANCH  23  24
ATOM     24  C   UNL     1      -5.996   1.225  -0.434  1.00  0.00     0.313 C 
ATOM     25  O   UNL     1      -5.373   1.882  -1.250  1.00  0.00    -0.251 OA
BRANCH  24  26
ATOM     26  O   UNL     1      -7.128   0.590  -0.815  1.00  0.00    -0.481 OA
ATOM     27  H   UNL     1      -7.223   0.827  -1.762  1.00  0.00     0.296 HD
ENDBRANCH  24  26
ENDBRANCH  23  24
ENDBRANCH  22  23
ENDBRANCH  21  22
ENDBRANCH  17  21
ENDBRANCH   2  17
TORSDOF 15
