REMARK SMILES CC(C)C[C@H](NC(=O)[C@H](CCc1ccccc1)NC(=O)CN1CCOCC1)C(=O)N[C@@H](Cc1ccccc1)C(=O)N[C@@H](CC(C)C)C(=O)[C@@]1(C)CO1
REMARK SMILES IDX 28 1 29 2 30 3 5 5 4 6 2 7 1 8 3 9 6 10 7 11 8 12 9 14 10 15
REMARK SMILES IDX 11 16 12 17 13 18 17 19 14 20 16 21 15 22 18 23 19 24 20 25
REMARK SMILES IDX 21 27 22 28 23 29 27 30 24 31 26 32 25 33 31 34 32 35 33 36
REMARK SMILES IDX 34 37 38 38 35 39 37 40 36 41 39 42 40 43 41 44 42 46 43 47
REMARK SMILES IDX 44 48 45 49 46 50 47 51 48 52 49 53 51 54 52 55 50 56
REMARK H PARENT 30 4 6 13 18 26 41 45
ROOT
ATOM      1  C   UNL     1      -0.580  -1.549  -1.015  1.00  0.00     0.243 C 
ATOM      2  O   UNL     1      -0.363  -0.550  -1.697  1.00  0.00    -0.273 OA
ATOM      3  N   UNL     1      -1.786  -2.217  -1.082  1.00  0.00    -0.342 N 
ATOM      4  H   UNL     1      -1.994  -2.936  -0.399  1.00  0.00     0.164 HD
ENDROOT
BRANCH   1   5
ATOM      5  C   UNL     1       0.439  -2.156  -0.020  1.00  0.00     0.171 C 
BRANCH   5   6
ATOM      6  C   UNL     1      -0.050  -2.060   1.439  1.00  0.00     0.038 C 
BRANCH   6   7
ATOM      7  C   UNL     1       0.356  -3.252   2.330  1.00  0.00    -0.015 C 
ATOM      8  C   UNL     1       1.868  -3.396   2.490  1.00  0.00     0.007 C 
ATOM      9  C   UNL     1      -0.308  -3.113   3.703  1.00  0.00     0.007 C 
ENDBRANCH   6   7
ENDBRANCH   5   6
BRANCH   5  10
ATOM     10  N   UNL     1       1.785  -1.642  -0.263  1.00  0.00    -0.343 N 
ATOM     11  C   UNL     1       2.156  -0.334  -0.002  1.00  0.00     0.243 C 
ATOM     12  O   UNL     1       1.444   0.469   0.602  1.00  0.00    -0.273 OA
ATOM     13  H   UNL     1       2.271  -2.068  -1.045  1.00  0.00     0.164 HD
BRANCH  11  14
ATOM     14  C   UNL     1       3.587   0.013  -0.476  1.00  0.00     0.171 C 
BRANCH  14  15
ATOM     15  C   UNL     1       4.626  -0.371   0.588  1.00  0.00     0.040 C 
BRANCH  15  16
ATOM     16  C   UNL     1       5.047  -1.840   0.486  1.00  0.00     0.038 C 
BRANCH  16  17
ATOM     17  C   UNL     1       6.170  -2.175   1.438  1.00  0.00    -0.048 A 
ATOM     18  C   UNL     1       5.911  -2.481   2.780  1.00  0.00     0.004 A 
ATOM     19  C   UNL     1       7.500  -2.153   0.993  1.00  0.00     0.004 A 
ATOM     20  C   UNL     1       6.961  -2.773   3.655  1.00  0.00     0.000 A 
ATOM     21  C   UNL     1       8.548  -2.442   1.868  1.00  0.00     0.000 A 
ATOM     22  C   UNL     1       8.278  -2.755   3.198  1.00  0.00     0.000 A 
ENDBRANCH  16  17
ENDBRANCH  15  16
ENDBRANCH  14  15
BRANCH  14  23
ATOM     23  N   UNL     1       3.660   1.440  -0.748  1.00  0.00    -0.343 N 
ATOM     24  C   UNL     1       3.537   1.938  -2.027  1.00  0.00     0.234 C 
ATOM     25  O   UNL     1       3.516   1.224  -3.028  1.00  0.00    -0.274 OA
ATOM     26  H   UNL     1       3.348   2.090  -0.026  1.00  0.00     0.164 HD
BRANCH  24  27
ATOM     27  C   UNL     1       3.554   3.470  -2.101  1.00  0.00     0.185 C 
BRANCH  27  28
ATOM     28  N   UNL     1       3.008   4.072  -0.851  1.00  0.00    -0.290 NA
ATOM     29  C   UNL     1       1.521   4.065  -0.897  1.00  0.00     0.113 C 
ATOM     30  C   UNL     1       3.481   5.465  -0.720  1.00  0.00     0.113 C 
ATOM     31  C   UNL     1       0.876   5.417  -1.263  1.00  0.00     0.175 C 
ATOM     32  C   UNL     1       2.956   6.420  -1.812  1.00  0.00     0.175 C 
ATOM     33  O   UNL     1       1.631   6.103  -2.263  1.00  0.00    -0.379 OA
ENDBRANCH  27  28
ENDBRANCH  24  27
ENDBRANCH  14  23
ENDBRANCH  11  14
ENDBRANCH   5  10
ENDBRANCH   1   5
BRANCH   3  34
ATOM     34  C   UNL     1      -2.920  -1.680  -1.854  1.00  0.00     0.175 C 
BRANCH  34  35
ATOM     35  C   UNL     1      -3.588  -2.792  -2.679  1.00  0.00     0.070 C 
BRANCH  35  36
ATOM     36  C   UNL     1      -4.182  -2.286  -3.975  1.00  0.00    -0.045 A 
ATOM     37  C   UNL     1      -3.366  -2.100  -5.102  1.00  0.00     0.004 A 
ATOM     38  C   UNL     1      -5.546  -1.988  -4.072  1.00  0.00     0.004 A 
ATOM     39  C   UNL     1      -3.908  -1.629  -6.301  1.00  0.00     0.000 A 
ATOM     40  C   UNL     1      -6.087  -1.513  -5.269  1.00  0.00     0.000 A 
ATOM     41  C   UNL     1      -5.269  -1.334  -6.382  1.00  0.00     0.000 A 
ENDBRANCH  35  36
ENDBRANCH  34  35
BRANCH  34  42
ATOM     42  C   UNL     1      -3.905  -1.008  -0.866  1.00  0.00     0.243 C 
ATOM     43  O   UNL     1      -5.125  -1.035  -0.991  1.00  0.00    -0.273 OA
ATOM     44  N   UNL     1      -3.292  -0.266   0.128  1.00  0.00    -0.344 N 
ATOM     45  H   UNL     1      -2.305  -0.061   0.001  1.00  0.00     0.164 HD
BRANCH  44  46
ATOM     46  C   UNL     1      -4.056   0.566   1.060  1.00  0.00     0.152 C 
BRANCH  46  47
ATOM     47  C   UNL     1      -3.448   0.441   2.473  1.00  0.00     0.036 C 
BRANCH  47  48
ATOM     48  C   UNL     1      -4.416  -0.174   3.508  1.00  0.00    -0.015 C 
ATOM     49  C   UNL     1      -3.671  -0.442   4.821  1.00  0.00     0.007 C 
ATOM     50  C   UNL     1      -5.630   0.715   3.780  1.00  0.00     0.007 C 
ENDBRANCH  47  48
ENDBRANCH  46  47
BRANCH  46  51
ATOM     51  C   UNL     1      -4.133   2.049   0.658  1.00  0.00     0.188 C 
ATOM     52  O   UNL     1      -4.726   2.884   1.339  1.00  0.00    -0.294 OA
BRANCH  51  53
ATOM     53  C   UNL     1      -3.377   2.464  -0.562  1.00  0.00     0.149 C 
ATOM     54  C   UNL     1      -4.015   2.231  -1.929  1.00  0.00     0.205 C 
ATOM     55  O   UNL     1      -4.018   3.519  -1.320  1.00  0.00    -0.361 OA
ATOM     56  C   UNL     1      -1.896   2.684  -0.465  1.00  0.00     0.053 C 
ENDBRANCH  51  53
ENDBRANCH  46  51
ENDBRANCH  44  46
ENDBRANCH  34  42
ENDBRANCH   3  34
TORSDOF 20
