REMARK SMILES CCCCCCNC(=O)n1cc(F)c(=O)[nH]c1=O
REMARK SMILES IDX 5 1 4 2 3 3 2 4 1 5 6 6 7 7 8 8 9 9 10 11 11 12 17 13 12 14
REMARK SMILES IDX 16 15 18 16 14 17 15 18 13 19
REMARK H PARENT 7 10 16 20
ROOT
ATOM      1  C   UNL     1      -0.944   1.066  -0.384  1.00  0.00     0.021 C 
ENDROOT
BRANCH   1   2
ATOM      2  C   UNL     1      -2.457   1.281  -0.293  1.00  0.00     0.002 C 
BRANCH   2   3
ATOM      3  C   UNL     1      -3.250  -0.024  -0.196  1.00  0.00    -0.000 C 
BRANCH   3   4
ATOM      4  C   UNL     1      -4.756   0.241  -0.220  1.00  0.00    -0.003 C 
ATOM      5  C   UNL     1      -5.550  -1.052  -0.121  1.00  0.00     0.004 C 
ENDBRANCH   3   4
ENDBRANCH   2   3
ENDBRANCH   1   2
BRANCH   1   6
ATOM      6  C   UNL     1      -0.341   0.460   0.882  1.00  0.00     0.117 C 
BRANCH   6   7
ATOM      7  N   UNL     1       1.104   0.402   0.804  1.00  0.00    -0.337 N 
ATOM      8  C   UNL     1       1.772  -0.605   0.152  1.00  0.00     0.329 C 
ATOM      9  O   UNL     1       1.164  -1.561  -0.333  1.00  0.00    -0.248 OA
ATOM     10  H   UNL     1       1.630   1.238   1.054  1.00  0.00     0.165 HD
BRANCH   8  11
ATOM     11  N   UNL     1       3.176  -0.480   0.091  1.00  0.00    -0.217 N 
ATOM     12  C   UNL     1       3.883  -1.533  -0.491  1.00  0.00     0.146 C 
ATOM     13  C   UNL     1       3.874   0.643   0.560  1.00  0.00     0.336 C 
ATOM     14  C   UNL     1       5.208  -1.535  -0.616  1.00  0.00     0.205 C 
ATOM     15  N   UNL     1       5.246   0.605   0.440  1.00  0.00    -0.271 N 
ATOM     16  O   UNL     1       3.355   1.647   1.051  1.00  0.00    -0.247 OA
ATOM     17  C   UNL     1       5.993  -0.390  -0.130  1.00  0.00     0.289 C 
ATOM     18  O   UNL     1       7.211  -0.324  -0.227  1.00  0.00    -0.266 OA
ATOM     19  F   UNL     1       5.878  -2.556  -1.180  1.00  0.00    -0.199 F 
ATOM     20  H   UNL     1       5.750   1.415   0.771  1.00  0.00     0.175 HD
ENDBRANCH   8  11
ENDBRANCH   6   7
ENDBRANCH   1   6
TORSDOF 6
