REMARK SMILES O=NN(CCCl)C(=O)NCCCl
REMARK SMILES IDX 9 1 7 2 8 3 10 5 11 6 12 7 3 8 4 9 5 10 6 11 2 12 1 13
REMARK H PARENT 9 4
ROOT
ATOM      1  N   UNL     1       1.071  -0.794  -0.603  1.00  0.00    -0.335 N 
ATOM      2  C   UNL     1      -0.112  -0.640   0.067  1.00  0.00     0.340 C 
ATOM      3  O   UNL     1      -0.156  -0.666   1.300  1.00  0.00    -0.247 OA
ATOM      4  H   UNL     1       1.047  -0.686  -1.610  1.00  0.00     0.165 HD
ENDROOT
BRANCH   1   5
ATOM      5  C   UNL     1       2.360  -0.844   0.063  1.00  0.00     0.134 C 
BRANCH   5   6
ATOM      6  C   UNL     1       3.130   0.475  -0.015  1.00  0.00     0.131 C 
ATOM      7  Cl  UNL     1       2.322   1.791   0.870  1.00  0.00    -0.125 Cl
ENDBRANCH   5   6
ENDBRANCH   1   5
BRANCH   2   8
ATOM      8  N   UNL     1      -1.261  -0.458  -0.698  1.00  0.00    -0.177 N 
BRANCH   8   9
ATOM      9  C   UNL     1      -2.529  -0.248  -0.006  1.00  0.00     0.169 C 
BRANCH   9  10
ATOM     10  C   UNL     1      -2.658   1.144   0.609  1.00  0.00     0.133 C 
ATOM     11  Cl  UNL     1      -2.849   2.400  -0.642  1.00  0.00    -0.125 Cl
ENDBRANCH   9  10
ENDBRANCH   8   9
BRANCH   8  12
ATOM     12  N   UNL     1      -1.336  -0.417  -2.196  1.00  0.00     0.061 NA
ATOM     13  O   UNL     1      -0.269  -0.595  -2.787  1.00  0.00    -0.125 OA
ENDBRANCH   8  12
ENDBRANCH   2   8
TORSDOF 6
