REMARK SMILES CCN(CC)CCn1c(=O)c(Cc2ccc(OC)cc2)nc2ccccc21
REMARK SMILES IDX 8 1 9 2 10 3 11 4 21 5 22 6 27 7 26 8 25 9 24 10 23 11 7 12
REMARK SMILES IDX 6 13 3 14 2 15 1 16 4 17 5 18 12 19 13 20 14 21 20 22 15 23
REMARK SMILES IDX 19 24 16 25 17 26 18 27
REMARK H PARENT
ROOT
ATOM      1  N   UNL     1      -0.805  -1.176   0.553  1.00  0.00    -0.304 N 
ATOM      2  C   UNL     1      -0.219  -0.174  -0.221  1.00  0.00     0.273 C 
ATOM      3  O   UNL     1      -0.329  -0.059  -1.437  1.00  0.00    -0.267 OA
ATOM      4  C   UNL     1       0.623   0.847   0.527  1.00  0.00     0.111 C 
ATOM      5  N   UNL     1       0.817   0.815   1.813  1.00  0.00    -0.245 NA
ATOM      6  C   UNL     1       0.223  -0.222   2.545  1.00  0.00     0.087 A 
ATOM      7  C   UNL     1      -0.581  -1.217   1.959  1.00  0.00     0.070 A 
ATOM      8  C   UNL     1      -1.128  -2.215   2.781  1.00  0.00     0.028 A 
ATOM      9  C   UNL     1      -0.888  -2.220   4.159  1.00  0.00     0.002 A 
ATOM     10  C   UNL     1      -0.098  -1.231   4.732  1.00  0.00     0.002 A 
ATOM     11  C   UNL     1       0.454  -0.238   3.926  1.00  0.00     0.030 A 
ENDROOT
BRANCH   1  12
ATOM     12  C   UNL     1      -1.754  -2.073  -0.105  1.00  0.00     0.141 C 
BRANCH  12  13
ATOM     13  C   UNL     1      -3.234  -1.675   0.108  1.00  0.00     0.106 C 
BRANCH  13  14
ATOM     14  N   UNL     1      -3.499  -0.273  -0.282  1.00  0.00    -0.302 NA
BRANCH  14  15
ATOM     15  C   UNL     1      -3.945   0.520   0.875  1.00  0.00     0.081 C 
ATOM     16  C   UNL     1      -3.780   2.021   0.657  1.00  0.00     0.021 C 
ENDBRANCH  14  15
BRANCH  14  17
ATOM     17  C   UNL     1      -4.423  -0.173  -1.423  1.00  0.00     0.081 C 
ATOM     18  C   UNL     1      -3.825  -0.724  -2.715  1.00  0.00     0.021 C 
ENDBRANCH  14  17
ENDBRANCH  13  14
ENDBRANCH  12  13
ENDBRANCH   1  12
BRANCH   4  19
ATOM     19  C   UNL     1       1.270   1.934  -0.299  1.00  0.00     0.097 C 
BRANCH  19  20
ATOM     20  C   UNL     1       2.622   1.521  -0.826  1.00  0.00    -0.042 A 
ATOM     21  C   UNL     1       3.757   1.602  -0.010  1.00  0.00     0.008 A 
ATOM     22  C   UNL     1       2.759   1.018  -2.123  1.00  0.00     0.008 A 
ATOM     23  C   UNL     1       5.011   1.206  -0.488  1.00  0.00     0.047 A 
ATOM     24  C   UNL     1       4.013   0.622  -2.597  1.00  0.00     0.047 A 
ATOM     25  C   UNL     1       5.145   0.717  -1.786  1.00  0.00     0.118 A 
BRANCH  25  26
ATOM     26  O   UNL     1       6.307   0.299  -2.375  1.00  0.00    -0.497 OA
ATOM     27  C   UNL     1       7.497   0.428  -1.606  1.00  0.00     0.278 C 
ENDBRANCH  25  26
ENDBRANCH  19  20
ENDBRANCH   4  19
TORSDOF 8
