REMARK SMILES O=c1[nH]c(=O)c2ccccc2o1
REMARK SMILES IDX 1 1 2 2 3 3 4 4 5 5 6 6 7 7 8 8 9 9 10 10 11 11 12 12
REMARK H PARENT 3 13
ROOT
ATOM      1  O   UNL     1      -3.494  -1.587   0.203  1.00  0.00    -0.224 OA
ATOM      2  C   UNL     1      -2.452  -0.944   0.124  1.00  0.00     0.419 C 
ATOM      3  N   UNL     1      -2.461   0.418  -0.020  1.00  0.00    -0.256 N 
ATOM      4  C   UNL     1      -1.372   1.239  -0.118  1.00  0.00     0.264 C 
ATOM      5  O   UNL     1      -1.476   2.452  -0.246  1.00  0.00    -0.269 OA
ATOM      6  C   UNL     1      -0.066   0.574  -0.060  1.00  0.00     0.083 A 
ATOM      7  C   UNL     1       1.125   1.298  -0.149  1.00  0.00     0.018 A 
ATOM      8  C   UNL     1       2.346   0.622  -0.089  1.00  0.00     0.001 A 
ATOM      9  C   UNL     1       2.372  -0.768   0.058  1.00  0.00     0.004 A 
ATOM     10  C   UNL     1       1.179  -1.487   0.147  1.00  0.00     0.048 A 
ATOM     11  C   UNL     1      -0.034  -0.805   0.086  1.00  0.00     0.145 A 
ATOM     12  O   UNL     1      -1.206  -1.568   0.179  1.00  0.00    -0.409 OA
ATOM     13  H   UNL     1      -3.368   0.856  -0.058  1.00  0.00     0.176 HD
ENDROOT
TORSDOF 0
