REMARK SMILES CC(C)(C)NCC(O)COc1cccc2c1CCC(=O)N2
REMARK SMILES IDX 7 1 6 2 5 3 2 5 1 6 3 7 4 8 8 9 9 11 10 12 11 13 16 14 12 15
REMARK SMILES IDX 17 16 15 17 13 18 18 19 21 20 14 21 19 22 20 23
REMARK H PARENT 5 4 8 10 21 24
ROOT
ATOM      1  C   UNL     1       1.122   0.908   1.386  1.00  0.00     0.165 C 
ENDROOT
BRANCH   1   2
ATOM      2  C   UNL     1       2.445   1.005   0.596  1.00  0.00     0.116 C 
BRANCH   2   3
ATOM      3  N   UNL     1       2.784  -0.299  -0.003  1.00  0.00    -0.309 NA
ATOM      4  H   UNL     1       2.100  -0.519  -0.730  1.00  0.00     0.123 HD
BRANCH   3   5
ATOM      5  C   UNL     1       4.136  -0.401  -0.593  1.00  0.00     0.010 C 
ATOM      6  C   UNL     1       4.227  -1.808  -1.216  1.00  0.00     0.027 C 
ATOM      7  C   UNL     1       5.231  -0.279   0.479  1.00  0.00     0.027 C 
ATOM      8  C   UNL     1       4.364   0.640  -1.701  1.00  0.00     0.027 C 
ENDBRANCH   3   5
ENDBRANCH   2   3
ENDBRANCH   1   2
BRANCH   1   9
ATOM      9  O   UNL     1       1.229  -0.201   2.296  1.00  0.00    -0.388 OA
ATOM     10  H   UNL     1       1.821  -0.838   1.845  1.00  0.00     0.211 HD
ENDBRANCH   1   9
BRANCH   1  11
ATOM     11  C   UNL     1      -0.098   0.715   0.474  1.00  0.00     0.262 C 
BRANCH  11  12
ATOM     12  O   UNL     1      -1.293   1.071   1.193  1.00  0.00    -0.490 OA
BRANCH  12  13
ATOM     13  C   UNL     1      -2.249   0.095   1.107  1.00  0.00     0.124 A 
ATOM     14  C   UNL     1      -3.398   0.320   0.342  1.00  0.00     0.018 A 
ATOM     15  C   UNL     1      -2.108  -1.075   1.856  1.00  0.00     0.047 A 
ATOM     16  C   UNL     1      -3.654   1.625  -0.359  1.00  0.00     0.051 C 
ATOM     17  C   UNL     1      -4.394  -0.665   0.322  1.00  0.00     0.048 A 
ATOM     18  C   UNL     1      -3.108  -2.045   1.828  1.00  0.00     0.006 A 
ATOM     19  C   UNL     1      -4.528   1.432  -1.588  1.00  0.00     0.105 C 
ATOM     20  N   UNL     1      -5.559  -0.458  -0.424  1.00  0.00    -0.326 N 
ATOM     21  C   UNL     1      -4.256  -1.840   1.062  1.00  0.00     0.027 A 
ATOM     22  C   UNL     1      -5.740   0.580  -1.297  1.00  0.00     0.224 C 
ATOM     23  O   UNL     1      -6.810   0.738  -1.881  1.00  0.00    -0.275 OA
ATOM     24  H   UNL     1      -6.340  -1.096  -0.332  1.00  0.00     0.169 HD
ENDBRANCH  12  13
ENDBRANCH  11  12
ENDBRANCH   1  11
TORSDOF 7
