REMARK SMILES CC(=O)N1CCN([C@H]2CCN(C(=O)N(C)[C@H](C)c3cc(C(F)(F)F)cc(C(F)(F)F)c3)[C@@H](c3ccc(F)cc3C)C2)CC1
REMARK SMILES IDX 14 1 15 2 16 3 17 4 18 5 31 6 19 7 26 8 20 9 25 10 27 11
REMARK SMILES IDX 28 12 29 13 30 14 21 15 22 16 23 17 24 18 12 19 13 20 11 21
REMARK SMILES IDX 10 22 32 23 9 24 41 25 8 26 33 27 39 28 34 29 38 30 35 31
REMARK SMILES IDX 36 32 40 33 37 34 7 35 6 36 42 37 5 38 43 39 4 40 2 41 3 42
REMARK SMILES IDX 1 43
REMARK H PARENT
ROOT
ATOM      1  N   UNL     1      -2.697   0.941   1.337  1.00  0.00    -0.321 N 
ATOM      2  C   UNL     1      -2.686   2.197   2.082  1.00  0.00     0.149 C 
ENDROOT
BRANCH   1   3
ATOM      3  C   UNL     1      -4.012   0.552   0.774  1.00  0.00     0.114 C 
ATOM      4  C   UNL     1      -4.924  -0.087   1.845  1.00  0.00     0.036 C 
BRANCH   3   5
ATOM      5  C   UNL     1      -3.898  -0.211  -0.551  1.00  0.00    -0.024 A 
ATOM      6  C   UNL     1      -4.264  -1.565  -0.669  1.00  0.00     0.019 A 
ATOM      7  C   UNL     1      -3.411   0.453  -1.695  1.00  0.00     0.019 A 
ATOM      8  C   UNL     1      -4.196  -2.234  -1.903  1.00  0.00     0.056 A 
ATOM      9  C   UNL     1      -3.324  -0.201  -2.940  1.00  0.00     0.056 A 
ATOM     10  C   UNL     1      -3.725  -1.543  -3.033  1.00  0.00     0.026 A 
BRANCH   8  11
ATOM     11  C   UNL     1      -4.616  -3.684  -2.020  1.00  0.00     0.416 C 
ATOM     12  F   UNL     1      -5.313  -4.141  -0.939  1.00  0.00    -0.166 F 
ATOM     13  F   UNL     1      -3.555  -4.527  -2.174  1.00  0.00    -0.166 F 
ATOM     14  F   UNL     1      -5.424  -3.903  -3.091  1.00  0.00    -0.166 F 
ENDBRANCH   8  11
BRANCH   9  15
ATOM     15  C   UNL     1      -2.791   0.522  -4.158  1.00  0.00     0.416 C 
ATOM     16  F   UNL     1      -1.499   0.197  -4.445  1.00  0.00    -0.166 F 
ATOM     17  F   UNL     1      -3.508   0.247  -5.288  1.00  0.00    -0.166 F 
ATOM     18  F   UNL     1      -2.809   1.878  -4.025  1.00  0.00    -0.166 F 
ENDBRANCH   9  15
ENDBRANCH   3   5
ENDBRANCH   1   3
BRANCH   1  19
ATOM     19  C   UNL     1      -1.806  -0.078   1.672  1.00  0.00     0.320 C 
ATOM     20  O   UNL     1      -2.094  -1.266   1.541  1.00  0.00    -0.248 OA
BRANCH  19  21
ATOM     21  N   UNL     1      -0.558   0.295   2.180  1.00  0.00    -0.317 N 
ATOM     22  C   UNL     1       0.219  -0.800   2.745  1.00  0.00     0.123 C 
ATOM     23  C   UNL     1       0.264   1.324   1.493  1.00  0.00     0.119 C 
ATOM     24  C   UNL     1       0.939  -1.597   1.661  1.00  0.00     0.041 C 
ATOM     25  C   UNL     1       1.616   0.731   1.001  1.00  0.00     0.049 C 
ATOM     26  C   UNL     1       1.430  -0.709   0.487  1.00  0.00     0.061 C 
BRANCH  23  27
ATOM     27  C   UNL     1       0.540   2.584   2.335  1.00  0.00    -0.022 A 
ATOM     28  C   UNL     1       0.902   3.822   1.733  1.00  0.00    -0.043 A 
ATOM     29  C   UNL     1       0.471   2.525   3.748  1.00  0.00     0.009 A 
ATOM     30  C   UNL     1       1.211   4.927   2.554  1.00  0.00     0.043 A 
ATOM     31  C   UNL     1       0.749   3.639   4.541  1.00  0.00     0.039 A 
ATOM     32  C   UNL     1       1.127   4.826   3.939  1.00  0.00     0.123 A 
ATOM     33  C   UNL     1       1.050   4.006   0.244  1.00  0.00     0.045 C 
ATOM     34  F   UNL     1       1.427   5.886   4.700  1.00  0.00    -0.207 F 
ENDBRANCH  23  27
BRANCH  26  35
ATOM     35  N   UNL     1       2.653  -1.277  -0.126  1.00  0.00    -0.297 NA
ATOM     36  C   UNL     1       3.258  -0.423  -1.172  1.00  0.00     0.106 C 
ATOM     37  C   UNL     1       2.483  -2.657  -0.621  1.00  0.00     0.106 C 
ATOM     38  C   UNL     1       3.946  -1.145  -2.356  1.00  0.00     0.135 C 
ATOM     39  C   UNL     1       3.836  -3.252  -1.059  1.00  0.00     0.135 C 
ATOM     40  N   UNL     1       4.596  -2.390  -1.965  1.00  0.00    -0.340 N 
ATOM     41  C   UNL     1       5.766  -2.894  -2.505  1.00  0.00     0.219 C 
ATOM     42  O   UNL     1       6.218  -3.997  -2.190  1.00  0.00    -0.275 OA
ATOM     43  C   UNL     1       6.489  -2.037  -3.507  1.00  0.00     0.114 C 
ENDBRANCH  26  35
ENDBRANCH  19  21
ENDBRANCH   1  19
TORSDOF 8
