REMARK SMILES CO/N=C(\C(=O)N[C@@H]1C(=O)N2C(C(=O)[O-])=C(C[N+]3(C)CCCC3)CS[C@H]12)c1csc(N)n1
REMARK SMILES IDX 5 1 6 2 7 3 4 5 3 6 2 7 1 8 27 9 28 10 32 11 29 12 30 13
REMARK SMILES IDX 31 14 8 17 26 18 9 19 25 20 11 21 10 22 24 23 12 24 16 25
REMARK SMILES IDX 13 26 14 27 15 28 17 29 18 30 20 31 23 32 21 33 22 34 19 35
REMARK H PARENT 7 4 31 15 31 16
ROOT
ATOM      1  C   UNL     1       3.955  -0.915   0.693  1.00  0.00     0.276 C 
ATOM      2  O   UNL     1       3.832  -1.004   1.909  1.00  0.00    -0.267 OA
ATOM      3  N   UNL     1       2.988  -1.287  -0.217  1.00  0.00    -0.336 N 
ATOM      4  H   UNL     1       3.140  -1.081  -1.200  1.00  0.00     0.164 HD
ENDROOT
BRANCH   1   5
ATOM      5  C   UNL     1       5.251  -0.396   0.075  1.00  0.00     0.193 C 
ATOM      6  N   UNL     1       6.333  -1.123   0.005  1.00  0.00    -0.079 NA
BRANCH   6   7
ATOM      7  O   UNL     1       6.131  -2.393   0.566  1.00  0.00    -0.398 OA
ATOM      8  C   UNL     1       7.313  -3.160   0.389  1.00  0.00     0.315 C 
ENDBRANCH   6   7
BRANCH   5   9
ATOM      9  C   UNL     1       5.295   0.941  -0.504  1.00  0.00     0.111 A 
ATOM     10  C   UNL     1       6.444   1.583  -0.933  1.00  0.00     0.099 A 
ATOM     11  N   UNL     1       4.131   1.671  -0.709  1.00  0.00    -0.218 NA
ATOM     12  S   UNL     1       6.057   3.120  -1.581  1.00  0.00    -0.105 S 
ATOM     13  C   UNL     1       4.400   2.827  -1.256  1.00  0.00     0.180 A 
BRANCH  13  14
ATOM     14  N   UNL     1       3.448   3.720  -1.574  1.00  0.00    -0.375 N 
ATOM     15  H   UNL     1       3.658   4.362  -2.329  1.00  0.00     0.159 HD
ATOM     16  H   UNL     1       2.516   3.325  -1.629  1.00  0.00     0.159 HD
ENDBRANCH  13  14
ENDBRANCH   5   9
ENDBRANCH   1   5
BRANCH   3  17
ATOM     17  C   UNL     1       1.698  -1.869   0.232  1.00  0.00     0.206 C 
ATOM     18  C   UNL     1       0.581  -0.920   0.752  1.00  0.00     0.181 C 
ATOM     19  C   UNL     1       0.682  -2.220  -0.899  1.00  0.00     0.253 C 
ATOM     20  S   UNL     1       0.811   0.877   0.650  1.00  0.00    -0.129 SA
ATOM     21  N   UNL     1      -0.197  -1.330  -0.393  1.00  0.00    -0.293 N 
ATOM     22  O   UNL     1       0.696  -2.924  -1.880  1.00  0.00    -0.272 OA
ATOM     23  C   UNL     1      -0.975   1.211   0.721  1.00  0.00     0.111 C 
ATOM     24  C   UNL     1      -1.344  -0.741  -0.830  1.00  0.00     0.073 C 
ATOM     25  C   UNL     1      -1.786   0.423  -0.286  1.00  0.00     0.020 C 
BRANCH  24  26
ATOM     26  C   UNL     1      -2.176  -1.386  -1.982  1.00  0.00     0.088 C 
ATOM     27  O   UNL     1      -2.174  -0.730  -3.061  1.00  0.00    -0.543 OA
ATOM     28  O   UNL     1      -2.919  -2.334  -1.597  1.00  0.00    -0.543 OA
ENDBRANCH  24  26
BRANCH  25  29
ATOM     29  C   UNL     1      -3.044   1.104  -0.787  1.00  0.00     0.299 C 
BRANCH  29  30
ATOM     30  N   UNL     1      -4.389   0.785  -0.094  1.00  0.00    -0.322 N 
ATOM     31  C   UNL     1      -4.494   1.346   1.302  1.00  0.00     0.264 C 
ATOM     32  C   UNL     1      -4.628  -0.717   0.116  1.00  0.00     0.264 C 
ATOM     33  C   UNL     1      -5.582   0.527   1.982  1.00  0.00     0.067 C 
ATOM     34  C   UNL     1      -5.697  -0.773   1.200  1.00  0.00     0.067 C 
ATOM     35  C   UNL     1      -5.483   1.340  -1.008  1.00  0.00     0.334 C 
ENDBRANCH  29  30
ENDBRANCH  25  29
ENDBRANCH   3  17
TORSDOF 8
