REMARK SMILES CO[C@@]1(NC(=O)Cc2cccs2)C(=O)N2C(C(=O)O)=C(COC(N)=O)CS[C@@H]21
REMARK SMILES IDX 3 1 28 2 27 3 26 4 20 5 16 6 15 7 13 8 14 9 2 10 1 11 4 12
REMARK SMILES IDX 5 13 6 14 7 16 8 17 9 18 12 19 10 20 11 21 17 22 18 23 19 24
REMARK SMILES IDX 21 26 22 27 23 28 24 29 25 30
REMARK H PARENT 4 15 19 25 24 31 24 32
ROOT
ATOM      1  C   UNL     1      -1.080  -0.900  -1.205  1.00  0.00     0.252 C 
ATOM      2  C   UNL     1      -0.055   0.269  -1.527  1.00  0.00     0.212 C 
ATOM      3  S   UNL     1       0.040   1.658  -0.364  1.00  0.00    -0.126 SA
ATOM      4  C   UNL     1       1.709   2.148  -0.921  1.00  0.00     0.109 C 
ATOM      5  C   UNL     1       2.691   0.997  -1.073  1.00  0.00     0.008 C 
ATOM      6  C   UNL     1       2.315  -0.302  -1.179  1.00  0.00     0.134 C 
ATOM      7  N   UNL     1       1.004  -0.652  -1.189  1.00  0.00    -0.283 N 
ATOM      8  C   UNL     1       0.285  -1.792  -1.334  1.00  0.00     0.284 C 
ATOM      9  O   UNL     1       0.642  -2.937  -1.469  1.00  0.00    -0.269 OA
ENDROOT
BRANCH   1  10
ATOM     10  O   UNL     1      -2.040  -1.148  -2.268  1.00  0.00    -0.348 OA
ATOM     11  C   UNL     1      -3.241  -0.394  -2.233  1.00  0.00     0.198 C 
ENDBRANCH   1  10
BRANCH   1  12
ATOM     12  N   UNL     1      -1.640  -0.870   0.176  1.00  0.00    -0.317 N 
ATOM     13  C   UNL     1      -2.183  -1.975   0.786  1.00  0.00     0.227 C 
ATOM     14  O   UNL     1      -2.322  -3.056   0.226  1.00  0.00    -0.275 OA
ATOM     15  H   UNL     1      -1.519  -0.028   0.728  1.00  0.00     0.167 HD
BRANCH  13  16
ATOM     16  C   UNL     1      -2.587  -1.756   2.233  1.00  0.00     0.146 C 
BRANCH  16  17
ATOM     17  C   UNL     1      -3.699  -0.753   2.309  1.00  0.00     0.014 A 
ATOM     18  C   UNL     1      -5.028  -0.921   1.967  1.00  0.00     0.016 A 
ATOM     19  S   UNL     1      -3.388   0.835   2.875  1.00  0.00    -0.148 S 
ATOM     20  C   UNL     1      -5.788   0.270   2.164  1.00  0.00     0.012 A 
ATOM     21  C   UNL     1      -5.019   1.297   2.659  1.00  0.00     0.065 A 
ENDBRANCH  16  17
ENDBRANCH  13  16
ENDBRANCH   1  12
BRANCH   6  22
ATOM     22  C   UNL     1       3.311  -1.402  -1.239  1.00  0.00     0.352 C 
ATOM     23  O   UNL     1       3.538  -2.227  -0.376  1.00  0.00    -0.245 OA
BRANCH  22  24
ATOM     24  O   UNL     1       3.965  -1.394  -2.417  1.00  0.00    -0.477 OA
ATOM     25  H   UNL     1       4.533  -2.190  -2.344  1.00  0.00     0.297 HD
ENDBRANCH  22  24
ENDBRANCH   6  22
BRANCH   5  26
ATOM     26  C   UNL     1       4.140   1.443  -1.114  1.00  0.00     0.269 C 
BRANCH  26  27
ATOM     27  O   UNL     1       4.442   2.255   0.030  1.00  0.00    -0.445 OA
BRANCH  27  28
ATOM     28  C   UNL     1       5.136   1.645   1.015  1.00  0.00     0.404 C 
ATOM     29  N   UNL     1       5.397   2.527   2.004  1.00  0.00    -0.335 N 
ATOM     30  O   UNL     1       5.492   0.479   1.038  1.00  0.00    -0.225 OA
ATOM     31  H   UNL     1       5.137   3.493   1.906  1.00  0.00     0.163 HD
ATOM     32  H   UNL     1       5.953   2.220   2.791  1.00  0.00     0.163 HD
ENDBRANCH  27  28
ENDBRANCH  26  27
ENDBRANCH   5  26
TORSDOF 9
