REMARK SMILES CC(OC(=O)OC1CCCCC1)OC(=O)C1=C(CSc2nnnn2CCN(C)C)CS[C@@H]2[C@H](NC(=O)Cc3csc(N)n3)C(=O)N12
REMARK SMILES IDX 16 1 17 2 30 3 31 4 32 5 33 6 44 7 45 8 46 9 14 10 15 11
REMARK SMILES IDX 13 12 2 13 1 14 3 15 4 16 5 17 6 18 7 19 8 20 12 21 9 22
REMARK SMILES IDX 11 23 10 24 18 25 19 26 20 27 21 28 24 29 22 30 23 31 25 32
REMARK SMILES IDX 26 33 27 34 28 35 29 36 34 37 35 38 36 39 37 41 38 42 39 43
REMARK SMILES IDX 43 44 40 45 41 46 42 47
REMARK H PARENT 34 40 42 48 42 49
ROOT
ATOM      1  C   UNL     1      -0.904   2.018   1.275  1.00  0.00     0.132 C 
ATOM      2  C   UNL     1      -2.086   1.360   1.223  1.00  0.00    -0.018 C 
ATOM      3  C   UNL     1      -3.364   1.974   0.657  1.00  0.00     0.106 C 
ATOM      4  S   UNL     1      -3.133   3.526  -0.285  1.00  0.00    -0.129 SA
ATOM      5  C   UNL     1      -1.962   4.212   0.911  1.00  0.00     0.181 C 
ATOM      6  C   UNL     1      -0.985   5.330   0.440  1.00  0.00     0.205 C 
ATOM      7  C   UNL     1       0.127   4.237   0.658  1.00  0.00     0.253 C 
ATOM      8  O   UNL     1       1.328   4.137   0.598  1.00  0.00    -0.272 OA
ATOM      9  N   UNL     1      -0.828   3.323   0.921  1.00  0.00    -0.289 N 
ENDROOT
BRANCH   1  10
ATOM     10  C   UNL     1       0.356   1.397   1.782  1.00  0.00     0.358 C 
ATOM     11  O   UNL     1       0.925   1.789   2.791  1.00  0.00    -0.244 OA
BRANCH  10  12
ATOM     12  O   UNL     1       0.744   0.397   0.961  1.00  0.00    -0.421 OA
BRANCH  12  13
ATOM     13  C   UNL     1       2.012  -0.188   1.302  1.00  0.00     0.371 C 
ATOM     14  C   UNL     1       1.818  -1.183   2.444  1.00  0.00     0.102 C 
BRANCH  13  15
ATOM     15  O   UNL     1       2.492  -0.923   0.170  1.00  0.00    -0.394 OA
BRANCH  15  16
ATOM     16  C   UNL     1       3.832  -1.094   0.133  1.00  0.00     0.511 C 
ATOM     17  O   UNL     1       4.643  -0.583   0.892  1.00  0.00    -0.203 OA
BRANCH  16  18
ATOM     18  O   UNL     1       4.122  -1.959  -0.874  1.00  0.00    -0.431 OA
BRANCH  18  19
ATOM     19  C   UNL     1       5.516  -2.275  -1.040  1.00  0.00     0.180 C 
ATOM     20  C   UNL     1       5.697  -2.855  -2.452  1.00  0.00     0.045 C 
ATOM     21  C   UNL     1       5.959  -3.245   0.071  1.00  0.00     0.045 C 
ATOM     22  C   UNL     1       5.533  -4.375  -2.477  1.00  0.00     0.004 C 
ATOM     23  C   UNL     1       7.038  -4.203  -0.412  1.00  0.00     0.004 C 
ATOM     24  C   UNL     1       6.518  -5.089  -1.548  1.00  0.00     0.000 C 
ENDBRANCH  18  19
ENDBRANCH  16  18
ENDBRANCH  15  16
ENDBRANCH  13  15
ENDBRANCH  12  13
ENDBRANCH  10  12
ENDBRANCH   1  10
BRANCH   2  25
ATOM     25  C   UNL     1      -2.280  -0.022   1.800  1.00  0.00     0.112 C 
BRANCH  25  26
ATOM     26  S   UNL     1      -2.216  -1.304   0.528  1.00  0.00    -0.080 SA
BRANCH  26  27
ATOM     27  C   UNL     1      -3.855  -1.828   0.529  1.00  0.00     0.209 A 
ATOM     28  N   UNL     1      -4.871  -1.178   0.012  1.00  0.00    -0.102 NA
ATOM     29  N   UNL     1      -4.320  -2.961   1.135  1.00  0.00    -0.219 N 
ATOM     30  N   UNL     1      -5.982  -1.936   0.290  1.00  0.00    -0.023 NA
ATOM     31  N   UNL     1      -5.661  -3.015   0.994  1.00  0.00    -0.044 NA
BRANCH  29  32
ATOM     32  C   UNL     1      -3.652  -3.933   1.969  1.00  0.00     0.164 C 
BRANCH  32  33
ATOM     33  C   UNL     1      -3.271  -5.211   1.210  1.00  0.00     0.107 C 
BRANCH  33  34
ATOM     34  N   UNL     1      -2.096  -5.041   0.337  1.00  0.00    -0.308 NA
ATOM     35  C   UNL     1      -0.840  -5.077   1.097  1.00  0.00     0.105 C 
ATOM     36  C   UNL     1      -2.062  -6.087  -0.688  1.00  0.00     0.105 C 
ENDBRANCH  33  34
ENDBRANCH  32  33
ENDBRANCH  29  32
ENDBRANCH  26  27
ENDBRANCH  25  26
ENDBRANCH   2  25
BRANCH   6  37
ATOM     37  N   UNL     1      -1.163   5.854  -0.938  1.00  0.00    -0.341 N 
ATOM     38  C   UNL     1      -0.449   6.944  -1.396  1.00  0.00     0.226 C 
ATOM     39  O   UNL     1       0.492   7.426  -0.775  1.00  0.00    -0.275 OA
ATOM     40  H   UNL     1      -2.009   5.610  -1.460  1.00  0.00     0.164 HD
BRANCH  38  41
ATOM     41  C   UNL     1      -0.887   7.470  -2.752  1.00  0.00     0.157 C 
BRANCH  41  42
ATOM     42  C   UNL     1      -2.337   7.838  -2.748  1.00  0.00     0.063 A 
ATOM     43  C   UNL     1      -2.874   9.112  -2.819  1.00  0.00     0.093 A 
ATOM     44  N   UNL     1      -3.272   6.818  -2.641  1.00  0.00    -0.225 NA
ATOM     45  S   UNL     1      -4.587   9.025  -2.778  1.00  0.00    -0.106 S 
ATOM     46  C   UNL     1      -4.485   7.316  -2.621  1.00  0.00     0.180 A 
BRANCH  46  47
ATOM     47  N   UNL     1      -5.578   6.557  -2.486  1.00  0.00    -0.375 N 
ATOM     48  H   UNL     1      -6.457   6.918  -2.830  1.00  0.00     0.159 HD
ATOM     49  H   UNL     1      -5.452   5.564  -2.660  1.00  0.00     0.159 HD
ENDBRANCH  46  47
ENDBRANCH  41  42
ENDBRANCH  38  41
ENDBRANCH   6  37
TORSDOF 17
