REMARK SMILES CO/N=C(\C(=O)N[C@@H]1C(=O)N2C(C(=O)[O-])=C(C[n+]3cccc4c3CCC4)CS[C@H]12)c1csc(N)n1
REMARK SMILES IDX 5 1 6 2 7 3 4 5 3 6 2 7 1 8 30 9 31 10 35 11 32 12 33 13
REMARK SMILES IDX 34 14 8 17 29 18 9 19 28 20 11 21 10 22 27 23 12 24 16 25
REMARK SMILES IDX 13 26 14 27 15 28 17 29 18 30 19 31 23 32 20 33 22 34 24 35
REMARK SMILES IDX 21 36 26 37 25 38
REMARK H PARENT 7 4 34 15 34 16
ROOT
ATOM      1  C   UNL     1       3.875   0.114  -0.864  1.00  0.00     0.276 C 
ATOM      2  O   UNL     1       4.070  -0.815  -1.639  1.00  0.00    -0.267 OA
ATOM      3  N   UNL     1       2.756   0.923  -0.867  1.00  0.00    -0.336 N 
ATOM      4  H   UNL     1       2.815   1.776  -0.316  1.00  0.00     0.164 HD
ENDROOT
BRANCH   1   5
ATOM      5  C   UNL     1       4.902   0.427   0.221  1.00  0.00     0.193 C 
ATOM      6  N   UNL     1       5.398   1.621   0.406  1.00  0.00    -0.079 NA
BRANCH   6   7
ATOM      7  O   UNL     1       4.913   2.566  -0.518  1.00  0.00    -0.398 OA
ATOM      8  C   UNL     1       5.639   3.783  -0.337  1.00  0.00     0.315 C 
ENDBRANCH   6   7
BRANCH   5   9
ATOM      9  C   UNL     1       5.367  -0.653   1.098  1.00  0.00     0.111 A 
ATOM     10  C   UNL     1       4.844  -1.937   1.136  1.00  0.00     0.099 A 
ATOM     11  N   UNL     1       6.426  -0.462   1.986  1.00  0.00    -0.218 NA
ATOM     12  S   UNL     1       5.682  -2.902   2.277  1.00  0.00    -0.105 S 
ATOM     13  C   UNL     1       6.704  -1.569   2.624  1.00  0.00     0.180 A 
BRANCH  13  14
ATOM     14  N   UNL     1       7.753  -1.670   3.470  1.00  0.00    -0.375 N 
ATOM     15  H   UNL     1       8.562  -1.221   3.038  1.00  0.00     0.159 HD
ATOM     16  H   UNL     1       7.611  -1.060   4.273  1.00  0.00     0.159 HD
ENDBRANCH  13  14
ENDBRANCH   5   9
ENDBRANCH   1   5
BRANCH   3  17
ATOM     17  C   UNL     1       1.776   0.842  -1.985  1.00  0.00     0.206 C 
ATOM     18  C   UNL     1       0.801  -0.365  -2.049  1.00  0.00     0.181 C 
ATOM     19  C   UNL     1       0.476   1.705  -1.829  1.00  0.00     0.253 C 
ATOM     20  S   UNL     1       0.773  -1.604  -0.721  1.00  0.00    -0.129 SA
ATOM     21  N   UNL     1      -0.256   0.574  -1.737  1.00  0.00    -0.293 N 
ATOM     22  O   UNL     1       0.223   2.888  -1.764  1.00  0.00    -0.272 OA
ATOM     23  C   UNL     1      -0.890  -2.182  -1.186  1.00  0.00     0.111 C 
ATOM     24  C   UNL     1      -1.565   0.223  -1.614  1.00  0.00     0.074 C 
ATOM     25  C   UNL     1      -1.913  -1.071  -1.395  1.00  0.00     0.030 C 
BRANCH  24  26
ATOM     26  C   UNL     1      -2.688   1.277  -1.756  1.00  0.00     0.088 C 
ATOM     27  O   UNL     1      -3.279   1.222  -2.873  1.00  0.00    -0.543 OA
ATOM     28  O   UNL     1      -3.008   1.855  -0.678  1.00  0.00    -0.543 OA
ENDBRANCH  24  26
BRANCH  25  29
ATOM     29  C   UNL     1      -3.335  -1.597  -1.405  1.00  0.00     0.392 C 
BRANCH  29  30
ATOM     30  N   UNL     1      -4.391  -0.776  -0.767  1.00  0.00    -0.198 N 
ATOM     31  C   UNL     1      -5.417  -0.300  -1.529  1.00  0.00     0.308 A 
ATOM     32  C   UNL     1      -4.409  -0.542   0.564  1.00  0.00     0.184 A 
ATOM     33  C   UNL     1      -6.501   0.372  -0.954  1.00  0.00     0.071 A 
ATOM     34  C   UNL     1      -5.477   0.123   1.168  1.00  0.00     0.019 A 
ATOM     35  C   UNL     1      -3.328  -0.840   1.570  1.00  0.00     0.109 C 
ATOM     36  C   UNL     1      -6.543   0.586   0.421  1.00  0.00     0.016 A 
ATOM     37  C   UNL     1      -5.226   0.320   2.627  1.00  0.00     0.043 C 
ATOM     38  C   UNL     1      -4.112  -0.712   2.881  1.00  0.00     0.016 C 
ENDBRANCH  29  30
ENDBRANCH  25  29
ENDBRANCH   3  17
TORSDOF 8
