REMARK SMILES O=C(O)C1=C(C[n+]2ccc(CCS(=O)(=O)[O-])cc2)CS[C@@H]2[C@H](NC(=O)[C@H](NC(=O)c3nc[nH]c3C(=O)O)c3ccccc3)C(=O)N12
REMARK SMILES IDX 22 1 21 2 20 3 19 4 5 5 4 6 46 7 44 8 45 9 23 10 24 11 25 12
REMARK SMILES IDX 26 14 27 15 28 16 29 17 30 19 34 20 33 21 31 22 32 23 35 25
REMARK SMILES IDX 36 26 37 27 38 29 39 30 43 31 40 32 42 33 41 34 2 35 1 36
REMARK SMILES IDX 3 37 6 39 7 40 8 41 18 42 9 43 17 44 10 45 11 46 12 47 13 48
REMARK SMILES IDX 14 49 15 50 16 51
REMARK H PARENT 23 13 27 18 33 24 37 28 3 38
ROOT
ATOM      1  C   UNL     1      -0.849  -2.149   1.092  1.00  0.00     0.205 C 
ATOM      2  C   UNL     1       0.290  -1.555   0.203  1.00  0.00     0.181 C 
ATOM      3  S   UNL     1       0.083   0.131  -0.444  1.00  0.00    -0.129 SA
ATOM      4  C   UNL     1       1.865   0.419  -0.619  1.00  0.00     0.112 C 
ATOM      5  C   UNL     1       2.589   0.219   0.691  1.00  0.00     0.036 C 
ATOM      6  C   UNL     1       2.152  -0.659   1.624  1.00  0.00     0.137 C 
ATOM      7  N   UNL     1       1.106  -1.507   1.402  1.00  0.00    -0.289 N 
ATOM      8  C   UNL     1       0.163  -1.959   2.262  1.00  0.00     0.253 C 
ATOM      9  O   UNL     1       0.140  -2.049   3.468  1.00  0.00    -0.272 OA
ENDROOT
BRANCH   1  10
ATOM     10  N   UNL     1      -2.121  -1.388   1.218  1.00  0.00    -0.340 N 
ATOM     11  C   UNL     1      -3.095  -1.461   0.238  1.00  0.00     0.247 C 
ATOM     12  O   UNL     1      -2.940  -2.150  -0.770  1.00  0.00    -0.272 OA
ATOM     13  H   UNL     1      -2.223  -0.680   1.945  1.00  0.00     0.164 HD
BRANCH  11  14
ATOM     14  C   UNL     1      -4.342  -0.581   0.499  1.00  0.00     0.202 C 
BRANCH  14  15
ATOM     15  N   UNL     1      -5.460  -1.061  -0.282  1.00  0.00    -0.335 N 
ATOM     16  C   UNL     1      -6.757  -0.949   0.158  1.00  0.00     0.273 C 
ATOM     17  O   UNL     1      -7.051  -0.492   1.259  1.00  0.00    -0.267 OA
ATOM     18  H   UNL     1      -5.316  -1.380  -1.239  1.00  0.00     0.165 HD
BRANCH  16  19
ATOM     19  C   UNL     1      -7.730  -1.390  -0.846  1.00  0.00     0.160 A 
ATOM     20  C   UNL     1      -9.098  -1.570  -0.698  1.00  0.00     0.157 A 
ATOM     21  N   UNL     1      -9.549  -1.841  -1.972  1.00  0.00    -0.338 N 
ATOM     22  N   UNL     1      -7.355  -1.651  -2.166  1.00  0.00    -0.231 NA
ATOM     23  C   UNL     1      -8.471  -1.918  -2.803  1.00  0.00     0.198 A 
ATOM     24  H   UNL     1     -10.517  -1.996  -2.229  1.00  0.00     0.168 HD
BRANCH  20  25
ATOM     25  C   UNL     1      -9.975  -1.493   0.424  1.00  0.00     0.354 C 
ATOM     26  O   UNL     1     -11.155  -1.182   0.394  1.00  0.00    -0.245 OA
BRANCH  25  27
ATOM     27  O   UNL     1      -9.394  -1.926   1.554  1.00  0.00    -0.477 OA
ATOM     28  H   UNL     1     -10.071  -1.800   2.250  1.00  0.00     0.297 HD
ENDBRANCH  25  27
ENDBRANCH  20  25
ENDBRANCH  16  19
ENDBRANCH  14  15
BRANCH  14  29
ATOM     29  C   UNL     1      -4.065   0.886   0.207  1.00  0.00    -0.016 A 
ATOM     30  C   UNL     1      -4.441   1.871   1.135  1.00  0.00     0.006 A 
ATOM     31  C   UNL     1      -3.455   1.289  -0.992  1.00  0.00     0.006 A 
ATOM     32  C   UNL     1      -4.179   3.221   0.882  1.00  0.00     0.000 A 
ATOM     33  C   UNL     1      -3.185   2.635  -1.238  1.00  0.00     0.000 A 
ATOM     34  C   UNL     1      -3.541   3.602  -0.297  1.00  0.00     0.000 A 
ENDBRANCH  14  29
ENDBRANCH  11  14
ENDBRANCH   1  10
BRANCH   6  35
ATOM     35  C   UNL     1       2.792  -0.693   2.963  1.00  0.00     0.352 C 
ATOM     36  O   UNL     1       2.831   0.245   3.741  1.00  0.00    -0.245 OA
BRANCH  35  37
ATOM     37  O   UNL     1       3.432  -1.857   3.155  1.00  0.00    -0.477 OA
ATOM     38  H   UNL     1       3.761  -1.819   4.082  1.00  0.00     0.297 HD
ENDBRANCH  35  37
ENDBRANCH   6  35
BRANCH   5  39
ATOM     39  C   UNL     1       3.788   1.122   0.896  1.00  0.00     0.392 C 
BRANCH  39  40
ATOM     40  N   UNL     1       4.832   0.830  -0.113  1.00  0.00    -0.201 N 
ATOM     41  C   UNL     1       5.514  -0.338  -0.035  1.00  0.00     0.308 A 
ATOM     42  C   UNL     1       5.202   1.786  -0.999  1.00  0.00     0.308 A 
ATOM     43  C   UNL     1       6.616  -0.568  -0.839  1.00  0.00     0.074 A 
ATOM     44  C   UNL     1       6.321   1.619  -1.803  1.00  0.00     0.074 A 
ATOM     45  C   UNL     1       7.081   0.460  -1.661  1.00  0.00    -0.035 A 
BRANCH  45  46
ATOM     46  C   UNL     1       8.526   0.433  -2.108  1.00  0.00     0.051 C 
BRANCH  46  47
ATOM     47  C   UNL     1       9.430   1.315  -1.233  1.00  0.00     0.127 C 
BRANCH  47  48
ATOM     48  S   UNL     1       9.291   1.012   0.524  1.00  0.00     0.095 S 
ATOM     49  O   UNL     1      10.447   1.702   1.076  1.00  0.00    -0.243 OA
ATOM     50  O   UNL     1       9.325  -0.444   0.623  1.00  0.00    -0.243 OA
ATOM     51  O   UNL     1       8.000   1.604   0.891  1.00  0.00    -0.748 OA
ENDBRANCH  47  48
ENDBRANCH  46  47
ENDBRANCH  45  46
ENDBRANCH  39  40
ENDBRANCH   5  39
TORSDOF 14
