REMARK SMILES C/C=C/C1=C(C(=O)O)N2C(=O)[C@@H](NC(=O)[C@H](N)c3ccc(O)cc3)[C@H]2SC1
REMARK SMILES IDX 13 1 14 2 15 3 12 5 4 6 5 7 27 8 9 9 26 10 25 11 10 12 11 13
REMARK SMILES IDX 3 14 2 15 1 16 6 17 7 18 8 19 16 21 17 22 18 25 19 26 24 27
REMARK SMILES IDX 20 28 23 29 21 30 22 31
REMARK H PARENT 13 4 8 20 17 23 17 24 22 32
ROOT
ATOM      1  N   UNL     1      -1.040   0.820  -0.132  1.00  0.00    -0.340 N 
ATOM      2  C   UNL     1      -2.141   0.865   0.700  1.00  0.00     0.242 C 
ATOM      3  O   UNL     1      -2.318   1.804   1.476  1.00  0.00    -0.273 OA
ATOM      4  H   UNL     1      -0.907  -0.005  -0.703  1.00  0.00     0.164 HD
ENDROOT
BRANCH   1   5
ATOM      5  C   UNL     1       0.043   1.835  -0.024  1.00  0.00     0.205 C 
ATOM      6  C   UNL     1       3.751   0.273   1.165  1.00  0.00    -0.007 C 
ATOM      7  C   UNL     1       3.295   0.803   0.006  1.00  0.00     0.135 C 
ATOM      8  C   UNL     1       2.894   0.141   2.413  1.00  0.00     0.109 C 
ATOM      9  N   UNL     1       2.037   1.300  -0.095  1.00  0.00    -0.289 N 
ATOM     10  S   UNL     1       1.102   0.091   2.052  1.00  0.00    -0.129 SA
ATOM     11  C   UNL     1       1.170   1.586   1.026  1.00  0.00     0.181 C 
ATOM     12  C   UNL     1       1.201   1.697  -1.072  1.00  0.00     0.253 C 
ATOM     13  O   UNL     1       1.323   1.801  -2.269  1.00  0.00    -0.272 OA
BRANCH   6  14
ATOM     14  C   UNL     1       5.097  -0.260   1.341  1.00  0.00     0.002 C 
ATOM     15  C   UNL     1       5.579  -1.319   0.671  1.00  0.00    -0.030 C 
ATOM     16  C   UNL     1       6.955  -1.868   0.867  1.00  0.00     0.035 C 
ENDBRANCH   6  14
BRANCH   7  17
ATOM     17  C   UNL     1       4.138   0.827  -1.213  1.00  0.00     0.352 C 
ATOM     18  O   UNL     1       5.062   1.589  -1.435  1.00  0.00    -0.245 OA
BRANCH  17  19
ATOM     19  O   UNL     1       3.746  -0.114  -2.091  1.00  0.00    -0.477 OA
ATOM     20  H   UNL     1       4.302   0.056  -2.879  1.00  0.00     0.297 HD
ENDBRANCH  17  19
ENDBRANCH   7  17
ENDBRANCH   1   5
BRANCH   2  21
ATOM     21  C   UNL     1      -3.134  -0.319   0.570  1.00  0.00     0.172 C 
BRANCH  21  22
ATOM     22  N   UNL     1      -2.496  -1.522  -0.004  1.00  0.00    -0.316 NA
ATOM     23  H   UNL     1      -2.365  -1.413  -1.005  1.00  0.00     0.119 HD
ATOM     24  H   UNL     1      -1.604  -1.695   0.453  1.00  0.00     0.119 HD
ENDBRANCH  21  22
BRANCH  21  25
ATOM     25  C   UNL     1      -4.388   0.028  -0.212  1.00  0.00    -0.022 A 
ATOM     26  C   UNL     1      -4.360   0.857  -1.346  1.00  0.00     0.010 A 
ATOM     27  C   UNL     1      -5.617  -0.540   0.171  1.00  0.00     0.010 A 
ATOM     28  C   UNL     1      -5.531   1.128  -2.058  1.00  0.00     0.046 A 
ATOM     29  C   UNL     1      -6.788  -0.269  -0.541  1.00  0.00     0.046 A 
ATOM     30  C   UNL     1      -6.734   0.566  -1.651  1.00  0.00     0.115 A 
BRANCH  30  31
ATOM     31  O   UNL     1      -7.850   0.858  -2.377  1.00  0.00    -0.508 OA
ATOM     32  H   UNL     1      -8.608   0.408  -1.969  1.00  0.00     0.293 HD
ENDBRANCH  30  31
ENDBRANCH  21  25
ENDBRANCH   2  21
TORSDOF 8
