REMARK SMILES CC(C)(O/N=C(\C(=O)N[C@@H]1C(=O)N2C(C(=O)O)=C(C[n+]3ccccc3)CS[C@H]12)c1csc(N)n1)C(=O)O
REMARK SMILES IDX 5 1 6 2 4 3 2 4 1 5 3 6 35 7 36 8 37 9 7 11 8 12 9 13 10 15
REMARK SMILES IDX 28 16 11 17 27 18 13 19 12 20 26 21 14 22 18 23 15 24 16 25
REMARK SMILES IDX 17 26 19 28 20 29 21 30 25 31 22 32 24 33 23 34 29 35 30 36
REMARK SMILES IDX 34 37 31 38 32 39 33 40
REMARK H PARENT 37 10 9 14 17 27 33 41 33 42
ROOT
ATOM      1  N   UNL     1      -4.163   0.014  -0.319  1.00  0.00    -0.077 NA
ATOM      2  C   UNL     1      -3.929   1.103   0.359  1.00  0.00     0.193 C 
ENDROOT
BRANCH   1   3
ATOM      3  O   UNL     1      -3.143  -0.938  -0.150  1.00  0.00    -0.377 OA
BRANCH   3   4
ATOM      4  C   UNL     1      -3.305  -2.023  -1.080  1.00  0.00     0.228 C 
ATOM      5  C   UNL     1      -2.200  -3.031  -0.751  1.00  0.00     0.072 C 
ATOM      6  C   UNL     1      -4.678  -2.684  -0.905  1.00  0.00     0.072 C 
BRANCH   4   7
ATOM      7  C   UNL     1      -3.062  -1.534  -2.515  1.00  0.00     0.350 C 
ATOM      8  O   UNL     1      -2.496  -0.504  -2.855  1.00  0.00    -0.248 OA
BRANCH   7   9
ATOM      9  O   UNL     1      -3.484  -2.405  -3.459  1.00  0.00    -0.478 OA
ATOM     10  H   UNL     1      -3.299  -1.953  -4.311  1.00  0.00     0.296 HD
ENDBRANCH   7   9
ENDBRANCH   4   7
ENDBRANCH   3   4
ENDBRANCH   1   3
BRANCH   2  11
ATOM     11  C   UNL     1      -2.673   1.289   1.197  1.00  0.00     0.276 C 
ATOM     12  O   UNL     1      -2.701   1.160   2.414  1.00  0.00    -0.267 OA
ATOM     13  N   UNL     1      -1.539   1.607   0.475  1.00  0.00    -0.336 N 
ATOM     14  H   UNL     1      -1.627   1.693  -0.533  1.00  0.00     0.164 HD
BRANCH  13  15
ATOM     15  C   UNL     1      -0.286   1.972   1.174  1.00  0.00     0.206 C 
ATOM     16  C   UNL     1       0.526   0.856   1.902  1.00  0.00     0.181 C 
ATOM     17  C   UNL     1       0.981   2.114   0.280  1.00  0.00     0.253 C 
ATOM     18  S   UNL     1       0.076  -0.884   1.642  1.00  0.00    -0.129 SA
ATOM     19  N   UNL     1       1.632   1.175   1.014  1.00  0.00    -0.289 N 
ATOM     20  O   UNL     1       1.300   2.707  -0.724  1.00  0.00    -0.272 OA
ATOM     21  C   UNL     1       1.724  -1.476   2.097  1.00  0.00     0.112 C 
ATOM     22  C   UNL     1       2.665   0.346   0.672  1.00  0.00     0.137 C 
ATOM     23  C   UNL     1       2.798  -0.898   1.189  1.00  0.00     0.036 C 
BRANCH  22  24
ATOM     24  C   UNL     1       3.598   0.885  -0.345  1.00  0.00     0.352 C 
ATOM     25  O   UNL     1       4.547   1.608  -0.117  1.00  0.00    -0.245 OA
BRANCH  24  26
ATOM     26  O   UNL     1       3.295   0.415  -1.565  1.00  0.00    -0.477 OA
ATOM     27  H   UNL     1       3.762   1.025  -2.184  1.00  0.00     0.297 HD
ENDBRANCH  24  26
ENDBRANCH  22  24
BRANCH  23  28
ATOM     28  C   UNL     1       3.885  -1.918   0.930  1.00  0.00     0.392 C 
BRANCH  28  29
ATOM     29  N   UNL     1       5.159  -1.432   0.357  1.00  0.00    -0.201 N 
ATOM     30  C   UNL     1       6.041  -0.761   1.139  1.00  0.00     0.308 A 
ATOM     31  C   UNL     1       5.478  -1.748  -0.923  1.00  0.00     0.308 A 
ATOM     32  C   UNL     1       7.275  -0.364   0.635  1.00  0.00     0.071 A 
ATOM     33  C   UNL     1       6.701  -1.370  -1.464  1.00  0.00     0.071 A 
ATOM     34  C   UNL     1       7.606  -0.671  -0.678  1.00  0.00     0.012 A 
ENDBRANCH  28  29
ENDBRANCH  23  28
ENDBRANCH  13  15
ENDBRANCH   2  11
BRANCH   2  35
ATOM     35  C   UNL     1      -4.890   2.194   0.259  1.00  0.00     0.111 A 
ATOM     36  C   UNL     1      -6.119   2.112  -0.372  1.00  0.00     0.099 A 
ATOM     37  N   UNL     1      -4.603   3.452   0.783  1.00  0.00    -0.218 NA
ATOM     38  S   UNL     1      -6.934   3.614  -0.278  1.00  0.00    -0.105 S 
ATOM     39  C   UNL     1      -5.607   4.270   0.585  1.00  0.00     0.180 A 
BRANCH  39  40
ATOM     40  N   UNL     1      -5.605   5.546   1.002  1.00  0.00    -0.375 N 
ATOM     41  H   UNL     1      -4.697   5.925   1.245  1.00  0.00     0.159 HD
ATOM     42  H   UNL     1      -6.195   6.201   0.500  1.00  0.00     0.159 HD
ENDBRANCH  39  40
ENDBRANCH   2  35
TORSDOF 12
