REMARK SMILES CO/N=C(\C(=O)N[C@@H]1C(=O)N2C(C(=O)O)=C(COC(N)=O)CS[C@H]12)c1ccco1
REMARK SMILES IDX 8 1 24 2 23 3 22 4 16 5 12 6 11 7 9 8 10 9 7 10 5 11 6 12
REMARK SMILES IDX 4 14 3 15 2 16 1 17 25 18 26 19 29 20 27 21 28 22 13 23
REMARK SMILES IDX 14 24 15 25 17 27 18 28 19 29 20 30 21 31
REMARK H PARENT 7 13 15 26 20 32 20 33
ROOT
ATOM      1  C   UNL     1       0.929  -2.062   0.066  1.00  0.00     0.206 C 
ATOM      2  C   UNL     1      -0.263  -1.601   0.965  1.00  0.00     0.181 C 
ATOM      3  S   UNL     1      -0.535   0.186   1.160  1.00  0.00    -0.129 SA
ATOM      4  C   UNL     1      -2.298  -0.010   1.564  1.00  0.00     0.108 C 
ATOM      5  C   UNL     1      -3.043  -0.814   0.522  1.00  0.00     0.008 C 
ATOM      6  C   UNL     1      -2.442  -1.742  -0.257  1.00  0.00     0.134 C 
ATOM      7  N   UNL     1      -1.143  -2.109  -0.069  1.00  0.00    -0.289 N 
ATOM      8  C   UNL     1      -0.179  -2.445  -0.959  1.00  0.00     0.253 C 
ATOM      9  O   UNL     1      -0.215  -2.791  -2.117  1.00  0.00    -0.272 OA
ENDROOT
BRANCH   1  10
ATOM     10  N   UNL     1       1.897  -1.034  -0.386  1.00  0.00    -0.336 N 
ATOM     11  C   UNL     1       2.891  -0.573   0.451  1.00  0.00     0.277 C 
ATOM     12  O   UNL     1       3.041  -0.936   1.609  1.00  0.00    -0.267 OA
ATOM     13  H   UNL     1       1.955  -0.763  -1.365  1.00  0.00     0.164 HD
BRANCH  11  14
ATOM     14  C   UNL     1       3.800   0.483  -0.171  1.00  0.00     0.209 C 
ATOM     15  N   UNL     1       4.499   0.272  -1.250  1.00  0.00    -0.077 NA
BRANCH  15  16
ATOM     16  O   UNL     1       4.359  -1.041  -1.723  1.00  0.00    -0.398 OA
ATOM     17  C   UNL     1       5.207  -1.202  -2.855  1.00  0.00     0.315 C 
ENDBRANCH  15  16
BRANCH  14  18
ATOM     18  C   UNL     1       3.806   1.767   0.490  1.00  0.00     0.161 A 
ATOM     19  C   UNL     1       3.167   2.245   1.622  1.00  0.00     0.053 A 
ATOM     20  O   UNL     1       4.564   2.776  -0.049  1.00  0.00    -0.462 OA
ATOM     21  C   UNL     1       3.555   3.598   1.777  1.00  0.00     0.043 A 
ATOM     22  C   UNL     1       4.407   3.871   0.735  1.00  0.00     0.196 A 
ENDBRANCH  14  18
ENDBRANCH  11  14
ENDBRANCH   1  10
BRANCH   6  23
ATOM     23  C   UNL     1      -3.172  -2.432  -1.352  1.00  0.00     0.352 C 
ATOM     24  O   UNL     1      -3.379  -3.629  -1.422  1.00  0.00    -0.245 OA
BRANCH  23  25
ATOM     25  O   UNL     1      -3.583  -1.574  -2.300  1.00  0.00    -0.477 OA
ATOM     26  H   UNL     1      -3.959  -2.155  -2.994  1.00  0.00     0.297 HD
ENDBRANCH  23  25
ENDBRANCH   6  23
BRANCH   5  27
ATOM     27  C   UNL     1      -4.514  -0.476   0.440  1.00  0.00     0.269 C 
BRANCH  27  28
ATOM     28  O   UNL     1      -4.652   0.800  -0.195  1.00  0.00    -0.445 OA
BRANCH  28  29
ATOM     29  C   UNL     1      -5.372   1.725   0.472  1.00  0.00     0.404 C 
ATOM     30  N   UNL     1      -5.445   2.859  -0.258  1.00  0.00    -0.335 N 
ATOM     31  O   UNL     1      -5.882   1.597   1.572  1.00  0.00    -0.225 OA
ATOM     32  H   UNL     1      -5.948   3.653   0.109  1.00  0.00     0.163 HD
ATOM     33  H   UNL     1      -5.001   2.905  -1.163  1.00  0.00     0.163 HD
ENDBRANCH  28  29
ENDBRANCH  27  28
ENDBRANCH   5  27
TORSDOF 9
