REMARK SMILES Cc1ccc(-c2cc(C(F)(F)F)nn2-c2ccc(S(N)(=O)=O)cc2)cc1
REMARK SMILES IDX 15 1 16 2 17 3 18 4 23 5 24 6 14 7 6 8 7 9 8 10 13 11 5 12
REMARK SMILES IDX 2 13 3 14 26 15 4 16 25 17 1 18 9 19 10 20 11 21 12 22 19 23
REMARK SMILES IDX 21 24 22 25 20 26
REMARK H PARENT 20 27 20 28
ROOT
ATOM      1  C   UNL     1       1.210   0.831   0.249  1.00  0.00     0.065 A 
ATOM      2  C   UNL     1       2.415   1.156   0.903  1.00  0.00     0.030 A 
ATOM      3  C   UNL     1       3.544   0.342   0.775  1.00  0.00     0.024 A 
ATOM      4  C   UNL     1       3.474  -0.807  -0.012  1.00  0.00     0.082 A 
ATOM      5  C   UNL     1       2.299  -1.131  -0.691  1.00  0.00     0.024 A 
ATOM      6  C   UNL     1       1.171  -0.311  -0.561  1.00  0.00     0.030 A 
ENDROOT
BRANCH   1   7
ATOM      7  N   UNL     1       0.083   1.704   0.408  1.00  0.00    -0.233 N 
ATOM      8  C   UNL     1      -1.259   1.538   0.062  1.00  0.00     0.075 A 
ATOM      9  C   UNL     1      -1.863   2.761   0.292  1.00  0.00     0.064 A 
ATOM     10  C   UNL     1      -0.875   3.591   0.860  1.00  0.00     0.167 A 
ATOM     11  N   UNL     1       0.287   2.928   0.976  1.00  0.00    -0.163 NA
BRANCH   8  12
ATOM     12  C   UNL     1      -1.920   0.315  -0.379  1.00  0.00     0.000 A 
ATOM     13  C   UNL     1      -3.241  -2.024  -1.218  1.00  0.00    -0.051 A 
ATOM     14  C   UNL     1      -2.698  -1.940   0.069  1.00  0.00     0.004 A 
ATOM     15  C   UNL     1      -3.112  -0.932  -2.085  1.00  0.00     0.004 A 
ATOM     16  C   UNL     1      -2.051  -0.775   0.490  1.00  0.00     0.010 A 
ATOM     17  C   UNL     1      -2.467   0.234  -1.665  1.00  0.00     0.010 A 
ATOM     18  C   UNL     1      -3.908  -3.286  -1.679  1.00  0.00     0.044 C 
ENDBRANCH   8  12
BRANCH  10  19
ATOM     19  C   UNL     1      -1.052   5.011   1.325  1.00  0.00     0.435 C 
ATOM     20  F   UNL     1      -0.918   5.135   2.672  1.00  0.00    -0.164 F 
ATOM     21  F   UNL     1      -0.160   5.863   0.754  1.00  0.00    -0.164 F 
ATOM     22  F   UNL     1      -2.290   5.491   1.017  1.00  0.00    -0.164 F 
ENDBRANCH  10  19
ENDBRANCH   1   7
BRANCH   4  23
ATOM     23  S   UNL     1       4.910  -1.832  -0.180  1.00  0.00     0.238 S 
ATOM     24  O   UNL     1       4.693  -2.752  -1.274  1.00  0.00    -0.207 OA
ATOM     25  O   UNL     1       6.083  -0.997  -0.087  1.00  0.00    -0.207 OA
BRANCH  23  26
ATOM     26  N   UNL     1       4.822  -2.767   1.218  1.00  0.00    -0.225 NA
ATOM     27  H   UNL     1       4.682  -3.744   0.953  1.00  0.00     0.137 HD
ATOM     28  H   UNL     1       4.116  -2.444   1.877  1.00  0.00     0.137 HD
ENDBRANCH  23  26
ENDBRANCH   4  23
TORSDOF 5
