REMARK SMILES COCc1c(C(C)C)nc(C(C)C)c(/C=C/[C@@H](O)C[C@@H](O)CC(=O)O)c1-c1ccc(F)cc1
REMARK SMILES IDX 17 1 16 2 15 3 14 4 4 5 26 6 5 7 9 8 10 9 3 10 2 11 1 12
REMARK SMILES IDX 27 13 28 14 33 15 29 16 32 17 30 18 31 19 6 20 7 21 8 22
REMARK SMILES IDX 11 23 12 24 13 25 18 26 19 28 20 29 21 30 22 32 23 33 24 34
REMARK SMILES IDX 25 35
REMARK H PARENT 18 27 21 31 25 36
ROOT
ATOM      1  C   UNL     1       2.677  -1.227   1.915  1.00  0.00     0.140 C 
ENDROOT
BRANCH   1   2
ATOM      2  C   UNL     1       1.468  -1.069   1.046  1.00  0.00     0.005 C 
ATOM      3  C   UNL     1       1.156   0.055   0.383  1.00  0.00     0.009 C 
BRANCH   3   4
ATOM      4  C   UNL     1      -0.126   0.205  -0.333  1.00  0.00     0.004 A 
ATOM      5  C   UNL     1      -2.453   1.017  -0.398  1.00  0.00     0.008 A 
ATOM      6  C   UNL     1      -1.197   0.916   0.275  1.00  0.00    -0.002 A 
ATOM      7  C   UNL     1      -2.554   0.455  -1.682  1.00  0.00     0.049 A 
ATOM      8  N   UNL     1      -1.508  -0.198  -2.256  1.00  0.00    -0.256 NA
ATOM      9  C   UNL     1      -0.327  -0.330  -1.606  1.00  0.00     0.051 A 
BRANCH   5  10
ATOM     10  C   UNL     1      -3.628   1.694   0.276  1.00  0.00     0.197 C 
BRANCH  10  11
ATOM     11  O   UNL     1      -4.629   0.774   0.711  1.00  0.00    -0.380 OA
ATOM     12  C   UNL     1      -4.291   0.078   1.900  1.00  0.00     0.195 C 
ENDBRANCH  10  11
ENDBRANCH   5  10
BRANCH   6  13
ATOM     13  C   UNL     1      -0.977   1.579   1.584  1.00  0.00    -0.017 A 
ATOM     14  C   UNL     1      -0.955   0.843   2.781  1.00  0.00     0.012 A 
ATOM     15  C   UNL     1      -0.755   2.968   1.647  1.00  0.00     0.012 A 
ATOM     16  C   UNL     1      -0.734   1.476   4.006  1.00  0.00     0.040 A 
ATOM     17  C   UNL     1      -0.543   3.602   2.873  1.00  0.00     0.040 A 
ATOM     18  C   UNL     1      -0.536   2.849   4.040  1.00  0.00     0.123 A 
ATOM     19  F   UNL     1      -0.325   3.456   5.215  1.00  0.00    -0.207 F 
ENDBRANCH   6  13
BRANCH   7  20
ATOM     20  C   UNL     1      -3.736   0.558  -2.636  1.00  0.00     0.032 C 
ATOM     21  C   UNL     1      -5.093   0.090  -2.116  1.00  0.00     0.014 C 
ATOM     22  C   UNL     1      -3.819   1.944  -3.282  1.00  0.00     0.014 C 
ENDBRANCH   7  20
BRANCH   9  23
ATOM     23  C   UNL     1       0.743  -1.098  -2.363  1.00  0.00     0.032 C 
ATOM     24  C   UNL     1       0.429  -2.596  -2.349  1.00  0.00     0.014 C 
ATOM     25  C   UNL     1       0.879  -0.593  -3.804  1.00  0.00     0.014 C 
ENDBRANCH   9  23
ENDBRANCH   3   4
ENDBRANCH   1   2
BRANCH   1  26
ATOM     26  O   UNL     1       2.169  -1.457   3.232  1.00  0.00    -0.389 OA
ATOM     27  H   UNL     1       2.929  -1.457   3.837  1.00  0.00     0.211 HD
ENDBRANCH   1  26
BRANCH   1  28
ATOM     28  C   UNL     1       3.596  -2.400   1.547  1.00  0.00     0.068 C 
BRANCH  28  29
ATOM     29  C   UNL     1       4.337  -2.325   0.202  1.00  0.00     0.128 C 
BRANCH  29  30
ATOM     30  O   UNL     1       3.427  -2.680  -0.841  1.00  0.00    -0.392 OA
ATOM     31  H   UNL     1       3.944  -2.841  -1.651  1.00  0.00     0.210 HD
ENDBRANCH  29  30
BRANCH  29  32
ATOM     32  C   UNL     1       4.983  -0.982  -0.139  1.00  0.00     0.154 C 
BRANCH  32  33
ATOM     33  C   UNL     1       6.084  -0.615   0.814  1.00  0.00     0.305 C 
ATOM     34  O   UNL     1       6.570  -1.314   1.685  1.00  0.00    -0.252 OA
BRANCH  33  35
ATOM     35  O   UNL     1       6.531   0.639   0.608  1.00  0.00    -0.481 OA
ATOM     36  H   UNL     1       7.244   0.763   1.270  1.00  0.00     0.296 HD
ENDBRANCH  33  35
ENDBRANCH  32  33
ENDBRANCH  29  32
ENDBRANCH  28  29
ENDBRANCH   1  28
TORSDOF 14
