REMARK SMILES O=C(OCCN1CCCCCC1)C(c1ccsc1)C1CCCCC1
REMARK SMILES IDX 4 1 3 2 2 3 1 4 13 5 19 6 20 7 24 8 21 9 23 10 22 11 14 12
REMARK SMILES IDX 18 13 15 14 17 15 16 16 5 17 6 18 7 19 8 20 9 21 12 23 11 24
REMARK SMILES IDX 10 25
REMARK H PARENT
REMARK Flexibility Score:   83.900
ROOT
ATOM      1  C   UNL     1       1.484   0.066  -0.863  1.00  0.00     0.248 C 
ENDROOT
BRANCH   1   2
ATOM      2  O   UNL     1       0.102  -0.061  -1.254  1.00  0.00    -0.464 OA
BRANCH   2   3
ATOM      3  C   UNL     1      -0.606  -1.051  -0.629  1.00  0.00     0.313 C 
ATOM      4  O   UNL     1      -0.136  -1.805   0.212  1.00  0.00    -0.252 OA
BRANCH   3   5
ATOM      5  C   UNL     1      -2.059  -1.014  -1.110  1.00  0.00     0.133 C 
BRANCH   5   6
ATOM      6  C   UNL     1      -2.822   0.149  -0.423  1.00  0.00     0.008 C 
ATOM      7  C   UNL     1      -2.868   0.059   1.118  1.00  0.00     0.005 C 
ATOM      8  C   UNL     1      -4.235   0.356  -0.990  1.00  0.00     0.005 C 
ATOM      9  C   UNL     1      -3.982   0.900   1.750  1.00  0.00     0.000 C 
ATOM     10  C   UNL     1      -4.860   1.663  -0.493  1.00  0.00     0.000 C 
ATOM     11  C   UNL     1      -4.364   2.095   0.888  1.00  0.00     0.000 C 
ENDBRANCH   5   6
BRANCH   5  12
ATOM     12  C   UNL     1      -2.754  -2.367  -1.058  1.00  0.00    -0.023 A 
ATOM     13  C   UNL     1      -3.510  -2.874  -2.105  1.00  0.00     0.069 A 
ATOM     14  C   UNL     1      -2.741  -3.303   0.032  1.00  0.00     0.016 A 
ATOM     15  S   UNL     1      -4.174  -4.414  -1.778  1.00  0.00    -0.152 S 
ATOM     16  C   UNL     1      -3.469  -4.443  -0.226  1.00  0.00     0.065 A 
ENDBRANCH   5  12
ENDBRANCH   3   5
ENDBRANCH   2   3
ENDBRANCH   1   2
BRANCH   1  17
ATOM     17  C   UNL     1       1.593   0.905   0.419  1.00  0.00     0.126 C 
BRANCH  17  18
ATOM     18  N   UNL     1       2.920   1.330   0.861  1.00  0.00    -0.300 NA
BRANCH  18  19
ATOM     19  C   UNL     1       3.667   2.174  -0.057  1.00  0.00     0.084 C 
BRANCH  19  20
ATOM     20  C   UNL     1       4.732   1.508  -0.934  1.00  0.00     0.016 C 
BRANCH  20  21
ATOM     21  C   UNL     1       5.947   1.041  -0.142  1.00  0.00     0.001 CG0
ATOM     22  G   UNL     1       5.803  -0.333   0.500  1.00  0.00     0.000 G0
ENDBRANCH  20  21
ENDBRANCH  19  20
ENDBRANCH  18  19
BRANCH  18  23
ATOM     23  C   UNL     1       3.655   0.407   1.717  1.00  0.00     0.084 C 
BRANCH  23  24
ATOM     24  C   UNL     1       4.419  -0.714   1.016  1.00  0.00     0.016 C 
BRANCH  24  25
ATOM     25  C   UNL     1       5.803  -0.333   0.500  1.00  0.00     0.001 CG0
ATOM     26  G   UNL     1       5.947   1.041  -0.142  1.00  0.00     0.000 G0
ENDBRANCH  24  25
ENDBRANCH  23  24
ENDBRANCH  18  23
ENDBRANCH  17  18
ENDBRANCH   1  17
TORSDOF 7
