REMARK SMILES ClCCN(CCCl)c1ccc2ccccc2c1
REMARK SMILES IDX 4 1 3 2 2 3 1 4 5 5 6 6 7 7 8 8 17 9 9 10 16 11 10 12 15 13
REMARK SMILES IDX 11 14 14 15 12 16 13 17
REMARK H PARENT
ROOT
ATOM      1  N   UNL     1      -1.736   0.225   0.173  1.00  0.00    -0.369 N 
ENDROOT
BRANCH   1   2
ATOM      2  C   UNL     1      -2.019   1.424   1.000  1.00  0.00     0.132 C 
BRANCH   2   3
ATOM      3  C   UNL     1      -3.060   2.347   0.358  1.00  0.00     0.131 C 
ATOM      4  Cl  UNL     1      -2.454   3.114  -1.134  1.00  0.00    -0.125 Cl
ENDBRANCH   2   3
ENDBRANCH   1   2
BRANCH   1   5
ATOM      5  C   UNL     1      -2.736  -0.860   0.263  1.00  0.00     0.132 C 
BRANCH   5   6
ATOM      6  C   UNL     1      -2.661  -1.803  -0.940  1.00  0.00     0.131 C 
ATOM      7  Cl  UNL     1      -3.946  -3.037  -0.843  1.00  0.00    -0.125 Cl
ENDBRANCH   5   6
ENDBRANCH   1   5
BRANCH   1   8
ATOM      8  C   UNL     1      -0.377  -0.138   0.245  1.00  0.00     0.037 A 
ATOM      9  C   UNL     1       0.552   0.598  -0.509  1.00  0.00     0.034 A 
ATOM     10  C   UNL     1       0.108  -1.182   1.039  1.00  0.00     0.026 A 
ATOM     11  C   UNL     1       1.927   0.308  -0.490  1.00  0.00    -0.016 A 
ATOM     12  C   UNL     1       1.474  -1.487   1.073  1.00  0.00     0.011 A 
ATOM     13  C   UNL     1       2.845   1.047  -1.254  1.00  0.00     0.009 A 
ATOM     14  C   UNL     1       2.395  -0.753   0.314  1.00  0.00    -0.018 A 
ATOM     15  C   UNL     1       4.207   0.744  -1.223  1.00  0.00     0.001 A 
ATOM     16  C   UNL     1       3.768  -1.046   0.336  1.00  0.00     0.009 A 
ATOM     17  C   UNL     1       4.668  -0.302  -0.428  1.00  0.00     0.001 A 
ENDBRANCH   1   8
TORSDOF 5
