REMARK SMILES N=C(NCCCCCCNC(=N)NC(=N)Nc1ccc(Cl)cc1)NC(=N)Nc1ccc(Cl)cc1
REMARK SMILES IDX 6 1 5 2 4 3 3 4 27 5 25 6 26 7 24 8 2 9 1 10 28 16 31 17
REMARK SMILES IDX 30 18 33 19 29 20 34 21 32 22 7 23 8 24 9 25 10 26 11 27
REMARK SMILES IDX 12 28 13 29 14 30 15 31 16 32 17 38 18 39 23 40 19 41 22 42
REMARK SMILES IDX 20 43 21 44
REMARK H PARENT 27 11 26 12 24 13 1 14 3 15 10 33 12 34 13 35 15 36 16 37
ROOT
ATOM      1  C   UNL     1      -0.447  -0.312  -0.145  1.00  0.00     0.002 C 
ENDROOT
BRANCH   1   2
ATOM      2  C   UNL     1       1.057  -0.336   0.130  1.00  0.00     0.021 C 
BRANCH   2   3
ATOM      3  C   UNL     1       1.820  -0.967  -1.035  1.00  0.00     0.116 C 
BRANCH   3   4
ATOM      4  N   UNL     1       3.256  -0.987  -0.766  1.00  0.00    -0.356 N 
ATOM      5  N   UNL     1       7.595   0.094  -0.690  1.00  0.00    -0.326 N 
ATOM      6  C   UNL     1       6.401   0.708  -0.407  1.00  0.00     0.199 C 
ATOM      7  N   UNL     1       6.254   1.909   0.044  1.00  0.00    -0.269 NA
ATOM      8  N   UNL     1       5.339  -0.112  -0.668  1.00  0.00    -0.297 N 
ATOM      9  C   UNL     1       4.035   0.112  -0.982  1.00  0.00     0.195 C 
ATOM     10  N   UNL     1       3.578   1.214  -1.465  1.00  0.00    -0.269 NA
ATOM     11  H   UNL     1       7.557  -0.522  -1.491  1.00  0.00     0.170 HD
ATOM     12  H   UNL     1       5.253   2.079   0.197  1.00  0.00     0.191 HD
ATOM     13  H   UNL     1       5.568  -1.094  -0.646  1.00  0.00     0.173 HD
ATOM     14  H   UNL     1       4.359   1.866  -1.604  1.00  0.00     0.191 HD
ATOM     15  H   UNL     1       3.475  -1.491   0.084  1.00  0.00     0.163 HD
BRANCH   5  16
ATOM     16  C   UNL     1       8.898   0.589  -0.464  1.00  0.00     0.041 A 
ATOM     17  C   UNL     1      11.555   1.418  -0.023  1.00  0.00     0.041 A 
ATOM     18  C   UNL     1      10.519   1.978   0.717  1.00  0.00     0.022 A 
ATOM     19  C   UNL     1      11.285   0.440  -0.972  1.00  0.00     0.022 A 
ATOM     20  C   UNL     1       9.201   1.561   0.498  1.00  0.00     0.027 A 
ATOM     21  C   UNL     1       9.966   0.022  -1.181  1.00  0.00     0.027 A 
ATOM     22  Cl  UNL     1      13.175   1.926   0.243  1.00  0.00    -0.084 Cl
ENDBRANCH   5  16
ENDBRANCH   3   4
ENDBRANCH   2   3
ENDBRANCH   1   2
BRANCH   1  23
ATOM     23  C   UNL     1      -1.251   0.380   0.959  1.00  0.00     0.002 C 
BRANCH  23  24
ATOM     24  C   UNL     1      -1.300  -0.359   2.302  1.00  0.00     0.021 C 
BRANCH  24  25
ATOM     25  C   UNL     1      -2.009  -1.718   2.282  1.00  0.00     0.116 C 
BRANCH  25  26
ATOM     26  N   UNL     1      -3.439  -1.569   2.046  1.00  0.00    -0.356 N 
ATOM     27  C   UNL     1      -4.043  -1.611   0.815  1.00  0.00     0.195 C 
ATOM     28  N   UNL     1      -3.558  -2.233  -0.200  1.00  0.00    -0.269 NA
ATOM     29  N   UNL     1      -5.227  -0.925   0.819  1.00  0.00    -0.297 N 
ATOM     30  C   UNL     1      -6.114  -0.531  -0.151  1.00  0.00     0.199 C 
ATOM     31  N   UNL     1      -5.943  -0.683  -1.419  1.00  0.00    -0.269 NA
ATOM     32  N   UNL     1      -7.188   0.120   0.412  1.00  0.00    -0.326 N 
ATOM     33  H   UNL     1      -3.844  -0.900   2.690  1.00  0.00     0.163 HD
ATOM     34  H   UNL     1      -2.700  -2.718   0.042  1.00  0.00     0.191 HD
ATOM     35  H   UNL     1      -5.663  -0.943   1.725  1.00  0.00     0.173 HD
ATOM     36  H   UNL     1      -6.711  -0.247  -1.929  1.00  0.00     0.191 HD
ATOM     37  H   UNL     1      -6.930   0.843   1.070  1.00  0.00     0.170 HD
BRANCH  32  38
ATOM     38  C   UNL     1      -8.474   0.288  -0.139  1.00  0.00     0.041 A 
ATOM     39  C   UNL     1      -9.240   1.405   0.232  1.00  0.00     0.027 A 
ATOM     40  C   UNL     1      -9.046  -0.646  -1.015  1.00  0.00     0.027 A 
ATOM     41  C   UNL     1     -10.527   1.598  -0.281  1.00  0.00     0.022 A 
ATOM     42  C   UNL     1     -10.332  -0.456  -1.532  1.00  0.00     0.022 A 
ATOM     43  C   UNL     1     -11.067   0.668  -1.164  1.00  0.00     0.041 A 
ATOM     44  Cl  UNL     1     -12.650   0.904  -1.795  1.00  0.00    -0.084 Cl
ENDBRANCH  32  38
ENDBRANCH  25  26
ENDBRANCH  24  25
ENDBRANCH  23  24
ENDBRANCH   1  23
TORSDOF 9
