REMARK SMILES C[C@H](CCC(=O)O)[C@H]1CC[C@H]2[C@@H]3[C@H](O)C[C@@H]4C[C@H](O)CC[C@]4(C)[C@H]3C[C@H](O)[C@]12C
REMARK SMILES IDX 3 1 2 2 1 3 8 4 9 5 28 6 10 7 26 8 11 9 25 10 12 11 24 12
REMARK SMILES IDX 13 13 22 14 15 15 21 16 16 17 20 18 17 19 18 20 29 21 23 22
REMARK SMILES IDX 27 23 14 25 19 27 4 29 5 30 6 31 7 32
REMARK H PARENT 27 24 14 26 19 28 7 33
ROOT
ATOM      1  C   UNL     1      -4.823   0.471   0.045  1.00  0.00     0.015 C 
ENDROOT
BRANCH   1   2
ATOM      2  C   UNL     1      -3.979  -0.760   0.443  1.00  0.00    -0.010 C 
ATOM      3  C   UNL     1      -4.844  -2.030   0.340  1.00  0.00     0.008 C 
BRANCH   2   4
ATOM      4  C   UNL     1      -2.678  -0.970  -0.380  1.00  0.00     0.001 C 
ATOM      5  C   UNL     1      -2.737  -0.628  -1.890  1.00  0.00     0.005 C 
ATOM      6  C   UNL     1      -1.381  -0.252   0.105  1.00  0.00    -0.000 C 
ATOM      7  C   UNL     1      -1.288  -0.319  -2.314  1.00  0.00     0.005 C 
ATOM      8  C   UNL     1      -0.761  -0.795   1.412  1.00  0.00     0.121 C 
ATOM      9  C   UNL     1      -0.452  -0.629  -1.072  1.00  0.00     0.004 C 
ATOM     10  C   UNL     1       0.671  -0.264   1.614  1.00  0.00     0.037 C 
ATOM     11  C   UNL     1       0.956  -0.024  -0.975  1.00  0.00     0.025 C 
ATOM     12  C   UNL     1       1.616  -0.404   0.383  1.00  0.00     0.004 C 
ATOM     13  C   UNL     1       1.866  -0.462  -2.156  1.00  0.00     0.118 C 
ATOM     14  C   UNL     1       3.026   0.318   0.584  1.00  0.00    -0.026 C 
ATOM     15  C   UNL     1       3.366  -0.394  -1.843  1.00  0.00     0.036 C 
ATOM     16  C   UNL     1       3.924  -0.630   1.446  1.00  0.00     0.010 C 
ATOM     17  C   UNL     1       3.671   0.682  -0.798  1.00  0.00     0.000 C 
ATOM     18  C   UNL     1       5.357  -0.806   0.959  1.00  0.00     0.032 C 
ATOM     19  C   UNL     1       5.179   1.016  -0.757  1.00  0.00     0.036 C 
ATOM     20  C   UNL     1       5.939   0.497   0.459  1.00  0.00     0.114 C 
ATOM     21  C   UNL     1      -1.584   1.277   0.244  1.00  0.00     0.015 C 
ATOM     22  C   UNL     1       2.871   1.663   1.346  1.00  0.00     0.012 C 
BRANCH   8  23
ATOM     23  O   UNL     1      -0.748  -2.220   1.465  1.00  0.00    -0.393 OA
ATOM     24  H   UNL     1      -0.121  -2.557   0.807  1.00  0.00     0.210 HD
ENDBRANCH   8  23
BRANCH  13  25
ATOM     25  O   UNL     1       1.576  -1.785  -2.602  1.00  0.00    -0.393 OA
ATOM     26  H   UNL     1       1.853  -2.411  -1.912  1.00  0.00     0.210 HD
ENDBRANCH  13  25
BRANCH  20  27
ATOM     27  O   UNL     1       7.304   0.288   0.111  1.00  0.00    -0.393 OA
ATOM     28  H   UNL     1       7.663   1.139  -0.195  1.00  0.00     0.210 HD
ENDBRANCH  20  27
ENDBRANCH   2   4
ENDBRANCH   1   2
BRANCH   1  29
ATOM     29  C   UNL     1      -5.892   0.830   1.084  1.00  0.00     0.123 C 
BRANCH  29  30
ATOM     30  C   UNL     1      -6.592   2.117   0.737  1.00  0.00     0.303 C 
ATOM     31  O   UNL     1      -6.391   2.840  -0.223  1.00  0.00    -0.252 OA
BRANCH  30  32
ATOM     32  O   UNL     1      -7.533   2.435   1.648  1.00  0.00    -0.481 OA
ATOM     33  H   UNL     1      -7.911   3.276   1.314  1.00  0.00     0.296 HD
ENDBRANCH  30  32
ENDBRANCH  29  30
ENDBRANCH   1  29
TORSDOF 8
