REMARK SMILES CCC#CC[C@H](C)[C@H](O)C#C[C@@H]1[C@H]2C/C(=C/COCC(=O)O)C[C@H]2C[C@H]1O
REMARK SMILES IDX 11 1 12 2 26 3 25 4 24 5 23 6 15 7 14 8 13 9 16 10 10 11
REMARK SMILES IDX 8 12 6 13 7 14 5 15 4 16 3 17 2 18 1 19 9 20 27 22 17 24
REMARK SMILES IDX 18 25 19 26 20 27 21 28 22 29
REMARK H PARENT 9 21 27 23 22 30
ROOT
ATOM      1  C   UNL     1       0.529  -0.338  -0.660  1.00  0.00    -0.094 C 
ATOM      2  C   UNL     1      -0.570  -0.842   0.182  1.00  0.00     0.097 C 
ATOM      3  C   UNL     1      -0.046  -1.543   1.447  1.00  0.00     0.130 C 
ATOM      4  C   UNL     1      -1.104  -1.319   2.535  1.00  0.00     0.037 C 
ATOM      5  C   UNL     1      -2.120  -0.341   1.949  1.00  0.00     0.000 C 
ATOM      6  C   UNL     1      -3.361  -1.023   1.361  1.00  0.00     0.034 C 
ATOM      7  C   UNL     1      -3.692  -0.179   0.158  1.00  0.00    -0.071 C 
ATOM      8  C   UNL     1      -2.560   0.765  -0.156  1.00  0.00     0.036 C 
ATOM      9  C   UNL     1      -1.424   0.298   0.748  1.00  0.00     0.014 C 
ATOM     10  C   UNL     1      -4.836  -0.220  -0.544  1.00  0.00     0.000 C 
ENDROOT
BRANCH   1  11
ATOM     11  C   UNL     1       1.424   0.086  -1.340  1.00  0.00    -0.071 C 
ATOM     12  C   UNL     1       2.516   0.622  -2.169  1.00  0.00     0.192 C 
BRANCH  12  13
ATOM     13  C   UNL     1       3.862   0.721  -1.421  1.00  0.00     0.039 C 
ATOM     14  C   UNL     1       3.792   1.667  -0.210  1.00  0.00     0.012 C 
BRANCH  13  15
ATOM     15  C   UNL     1       4.371  -0.675  -1.020  1.00  0.00     0.096 C 
ATOM     16  C   UNL     1       5.791  -0.659  -0.635  1.00  0.00    -0.103 C 
BRANCH  16  17
ATOM     17  C   UNL     1       6.950  -0.640  -0.319  1.00  0.00    -0.104 C 
ATOM     18  C   UNL     1       8.366  -0.609   0.069  1.00  0.00     0.086 C 
ATOM     19  C   UNL     1       8.677   0.612   0.918  1.00  0.00     0.018 C 
ENDBRANCH  16  17
ENDBRANCH  13  15
ENDBRANCH  12  13
BRANCH  12  20
ATOM     20  O   UNL     1       2.147   1.914  -2.644  1.00  0.00    -0.380 OA
ATOM     21  H   UNL     1       1.254   1.830  -3.019  1.00  0.00     0.212 HD
ENDBRANCH  12  20
ENDBRANCH   1  11
BRANCH   3  22
ATOM     22  O   UNL     1       0.132  -2.938   1.228  1.00  0.00    -0.392 OA
ATOM     23  H   UNL     1       0.813  -3.034   0.538  1.00  0.00     0.211 HD
ENDBRANCH   3  22
BRANCH  10  24
ATOM     24  C   UNL     1      -5.990  -1.144  -0.296  1.00  0.00     0.188 C 
BRANCH  24  25
ATOM     25  O   UNL     1      -7.016  -0.495   0.450  1.00  0.00    -0.366 OA
BRANCH  25  26
ATOM     26  C   UNL     1      -7.876   0.321  -0.329  1.00  0.00     0.282 C 
BRANCH  26  27
ATOM     27  C   UNL     1      -7.364   1.721  -0.627  1.00  0.00     0.329 C 
ATOM     28  O   UNL     1      -7.169   2.192  -1.739  1.00  0.00    -0.250 OA
BRANCH  27  29
ATOM     29  O   UNL     1      -7.132   2.455   0.480  1.00  0.00    -0.480 OA
ATOM     30  H   UNL     1      -6.775   3.303   0.144  1.00  0.00     0.296 HD
ENDBRANCH  27  29
ENDBRANCH  26  27
ENDBRANCH  25  26
ENDBRANCH  24  25
ENDBRANCH  10  24
TORSDOF 11
