REMARK SMILES NC1CCN(c2c(F)cc3c(=O)c(C(=O)O)cn(C4CC4)c3c2Cl)C1
REMARK SMILES IDX 6 1 7 2 8 3 9 4 10 5 11 6 12 7 13 8 17 9 18 10 22 11 23 12
REMARK SMILES IDX 24 13 5 14 2 15 3 16 25 17 4 18 1 19 19 22 20 23 21 24 14 25
REMARK SMILES IDX 15 26 16 27
REMARK H PARENT 1 20 1 21 16 28
ROOT
ATOM      1  C   UNL     1       1.254   0.616  -0.266  1.00  0.00     0.094 A 
ATOM      2  C   UNL     1       0.845   1.969  -0.396  1.00  0.00     0.148 A 
ATOM      3  F   UNL     1       1.751   2.960  -0.426  1.00  0.00    -0.205 F 
ATOM      4  C   UNL     1      -0.474   2.367  -0.558  1.00  0.00     0.056 A 
ATOM      5  C   UNL     1      -1.486   1.417  -0.549  1.00  0.00     0.051 A 
ATOM      6  C   UNL     1      -2.880   1.883  -0.769  1.00  0.00     0.204 C 
ATOM      7  O   UNL     1      -3.116   3.084  -0.823  1.00  0.00    -0.288 OA
ATOM      8  C   UNL     1      -3.941   0.861  -0.906  1.00  0.00     0.124 C 
ATOM      9  C   UNL     1      -3.584  -0.397  -0.613  1.00  0.00     0.106 C 
ATOM     10  N   UNL     1      -2.323  -0.835  -0.240  1.00  0.00    -0.342 N 
ATOM     11  C   UNL     1      -1.199   0.053  -0.351  1.00  0.00     0.073 A 
ATOM     12  C   UNL     1       0.182  -0.338  -0.295  1.00  0.00     0.091 A 
ATOM     13  Cl  UNL     1       0.534  -2.047  -0.396  1.00  0.00    -0.080 Cl
ENDROOT
BRANCH   1  14
ATOM     14  N   UNL     1       2.612   0.330  -0.144  1.00  0.00    -0.366 N 
ATOM     15  C   UNL     1       4.792  -0.647  -0.184  1.00  0.00     0.072 C 
ATOM     16  C   UNL     1       4.803   0.533   0.776  1.00  0.00     0.042 C 
ATOM     17  C   UNL     1       3.280  -0.974  -0.238  1.00  0.00     0.135 C 
ATOM     18  C   UNL     1       3.566   1.334   0.371  1.00  0.00     0.118 C 
BRANCH  15  19
ATOM     19  N   UNL     1       5.347  -0.259  -1.492  1.00  0.00    -0.326 NA
ATOM     20  H   UNL     1       4.723   0.434  -1.914  1.00  0.00     0.119 HD
ATOM     21  H   UNL     1       5.304  -1.060  -2.122  1.00  0.00     0.119 HD
ENDBRANCH  15  19
ENDBRANCH   1  14
BRANCH  10  22
ATOM     22  C   UNL     1      -2.292  -2.079   0.564  1.00  0.00     0.087 C 
ATOM     23  C   UNL     1      -3.227  -2.294   1.735  1.00  0.00     0.027 C 
ATOM     24  C   UNL     1      -1.765  -2.112   1.980  1.00  0.00     0.027 C 
ENDBRANCH  10  22
BRANCH   8  25
ATOM     25  C   UNL     1      -5.317   1.197  -1.309  1.00  0.00     0.341 C 
ATOM     26  O   UNL     1      -5.696   2.222  -1.844  1.00  0.00    -0.246 OA
BRANCH  25  27
ATOM     27  O   UNL     1      -6.205   0.217  -1.042  1.00  0.00    -0.477 OA
ATOM     28  H   UNL     1      -7.053   0.598  -1.357  1.00  0.00     0.297 HD
ENDBRANCH  25  27
ENDBRANCH   8  25
TORSDOF 5
