REMARK SMILES Cc1cc(CC(=O)O)c(C)n1-c1ccc(Cl)cc1
REMARK SMILES IDX 5 1 4 2 2 3 3 4 11 5 9 6 1 7 10 8 12 9 13 10 18 11 14 12
REMARK SMILES IDX 17 13 15 14 16 15 6 16 7 17 8 18
REMARK H PARENT 8 19
ROOT
ATOM      1  C   UNL     1      -3.379  -0.427   0.504  1.00  0.00     0.159 C 
ENDROOT
BRANCH   1   2
ATOM      2  C   UNL     1      -1.912  -0.641   0.287  1.00  0.00    -0.016 A 
ATOM      3  C   UNL     1       0.061  -1.676  -0.143  1.00  0.00     0.020 A 
ATOM      4  C   UNL     1      -1.301  -1.876  -0.034  1.00  0.00     0.027 A 
ATOM      5  N   UNL     1       0.321  -0.329   0.093  1.00  0.00    -0.318 N 
ATOM      6  C   UNL     1      -0.896   0.306   0.350  1.00  0.00     0.024 A 
ATOM      7  C   UNL     1       1.101  -2.718  -0.374  1.00  0.00     0.065 C 
ATOM      8  C   UNL     1      -1.040   1.781   0.546  1.00  0.00     0.065 C 
BRANCH   5   9
ATOM      9  C   UNL     1       1.607   0.289   0.084  1.00  0.00     0.046 A 
ATOM     10  C   UNL     1       1.970   1.169   1.112  1.00  0.00     0.028 A 
ATOM     11  C   UNL     1       2.511   0.016  -0.950  1.00  0.00     0.028 A 
ATOM     12  C   UNL     1       3.232   1.770   1.104  1.00  0.00     0.022 A 
ATOM     13  C   UNL     1       3.770   0.622  -0.956  1.00  0.00     0.022 A 
ATOM     14  C   UNL     1       4.126   1.495   0.070  1.00  0.00     0.041 A 
ATOM     15  Cl  UNL     1       5.677   2.238   0.062  1.00  0.00    -0.084 Cl
ENDBRANCH   5   9
ENDBRANCH   1   2
BRANCH   1  16
ATOM     16  C   UNL     1      -4.116  -0.007  -0.747  1.00  0.00     0.307 C 
ATOM     17  O   UNL     1      -3.672   0.215  -1.861  1.00  0.00    -0.252 OA
BRANCH  16  18
ATOM     18  O   UNL     1      -5.443   0.127  -0.522  1.00  0.00    -0.481 OA
ATOM     19  H   UNL     1      -5.796   0.398  -1.396  1.00  0.00     0.296 HD
ENDBRANCH  16  18
ENDBRANCH   1  16
TORSDOF 4
