REMARK SMILES Oc1ccc(Cl)c2cccnc12
REMARK SMILES IDX 2 1 12 2 11 3 10 4 9 5 8 6 7 7 5 8 6 9 4 10 3 11 1 12
REMARK H PARENT 1 13
ROOT
ATOM      1  C   UNL     1      -1.662  -0.295   0.347  1.00  0.00     0.141 A 
ATOM      2  C   UNL     1      -0.336  -0.565   0.018  1.00  0.00     0.113 A 
ATOM      3  N   UNL     1       0.017  -1.851  -0.194  1.00  0.00    -0.252 NA
ATOM      4  C   UNL     1       1.304  -2.107  -0.513  1.00  0.00     0.112 A 
ATOM      5  C   UNL     1       2.273  -1.132  -0.633  1.00  0.00     0.021 A 
ATOM      6  C   UNL     1       1.899   0.190  -0.412  1.00  0.00     0.013 A 
ATOM      7  C   UNL     1       0.566   0.514  -0.076  1.00  0.00     0.023 A 
ATOM      8  C   UNL     1       0.083   1.827   0.169  1.00  0.00     0.050 A 
ATOM      9  Cl  UNL     1       1.121   3.211   0.075  1.00  0.00    -0.084 Cl
ATOM     10  C   UNL     1      -1.257   2.058   0.497  1.00  0.00     0.025 A 
ATOM     11  C   UNL     1      -2.138   0.988   0.587  1.00  0.00     0.050 A 
ENDROOT
BRANCH   1  12
ATOM     12  O   UNL     1      -2.553  -1.338   0.443  1.00  0.00    -0.506 OA
ATOM     13  H   UNL     1      -2.012  -2.131   0.238  1.00  0.00     0.293 HD
ENDBRANCH   1  12
TORSDOF 1
