REMARK SMILES CN1CCN(C2=Nc3cc(Cl)ccc3Nc3ccccc32)CC1
REMARK SMILES IDX 1 1 2 2 3 3 4 4 5 5 22 6 23 7 6 8 7 9 8 10 9 11 10 12 11 13
REMARK SMILES IDX 12 14 13 15 14 16 15 17 16 18 21 19 20 20 19 21 18 22 17 23
REMARK H PARENT 15 24
ROOT
ATOM      1  C   UNL     1       5.470   0.103  -0.175  1.00  0.00     0.105 C 
ATOM      2  N   UNL     1       4.077   0.467  -0.418  1.00  0.00    -0.303 NA
ATOM      3  C   UNL     1       3.311  -0.690  -0.924  1.00  0.00     0.105 C 
ATOM      4  C   UNL     1       1.816  -0.366  -1.136  1.00  0.00     0.133 C 
ATOM      5  N   UNL     1       1.205   0.132   0.119  1.00  0.00    -0.353 N 
ATOM      6  C   UNL     1       1.947   1.307   0.632  1.00  0.00     0.133 C 
ATOM      7  C   UNL     1       3.442   0.968   0.821  1.00  0.00     0.105 C 
ATOM      8  C   UNL     1      -0.199   0.164   0.187  1.00  0.00     0.138 C 
ATOM      9  N   UNL     1      -0.772   1.320   0.372  1.00  0.00    -0.229 NA
ATOM     10  C   UNL     1      -2.146   1.570   0.442  1.00  0.00     0.090 A 
ATOM     11  C   UNL     1      -2.516   2.653   1.254  1.00  0.00     0.051 A 
ATOM     12  C   UNL     1      -3.833   3.098   1.304  1.00  0.00     0.043 A 
ATOM     13  Cl  UNL     1      -4.254   4.428   2.312  1.00  0.00    -0.084 Cl
ATOM     14  C   UNL     1      -4.808   2.484   0.530  1.00  0.00     0.023 A 
ATOM     15  C   UNL     1      -4.458   1.409  -0.287  1.00  0.00     0.030 A 
ATOM     16  C   UNL     1      -3.133   0.931  -0.334  1.00  0.00     0.065 A 
ATOM     17  N   UNL     1      -2.866  -0.211  -1.125  1.00  0.00    -0.353 N 
ATOM     18  C   UNL     1      -2.113  -1.299  -0.637  1.00  0.00     0.050 A 
ATOM     19  C   UNL     1      -0.915  -1.151   0.071  1.00  0.00     0.041 A 
ATOM     20  C   UNL     1      -0.283  -2.281   0.626  1.00  0.00     0.014 A 
ATOM     21  C   UNL     1      -0.815  -3.557   0.452  1.00  0.00     0.001 A 
ATOM     22  C   UNL     1      -1.982  -3.717  -0.285  1.00  0.00     0.002 A 
ATOM     23  C   UNL     1      -2.624  -2.599  -0.823  1.00  0.00     0.027 A 
ATOM     24  H   UNL     1      -3.676  -0.506  -1.658  1.00  0.00     0.167 HD
ENDROOT
TORSDOF 0
