REMARK SMILES COc1ccc2c3c1O[C@H]1[C@@H](O)C=C[C@H]4[C@@H](C2)N(C)CC[C@@]341
REMARK SMILES IDX 3 1 4 2 5 3 6 4 17 5 16 6 15 7 14 8 13 9 11 10 10 11 9 12
REMARK SMILES IDX 8 13 7 14 22 15 21 16 20 17 18 18 19 19 2 20 1 21 12 22
REMARK H PARENT 12 23
ROOT
ATOM      1  C   UNL     1       2.950  -0.275  -0.313  1.00  0.00     0.161 A 
ATOM      2  C   UNL     1       2.751  -1.521  -0.927  1.00  0.00     0.051 A 
ATOM      3  C   UNL     1       1.453  -2.050  -1.102  1.00  0.00     0.008 A 
ATOM      4  C   UNL     1       0.338  -1.363  -0.623  1.00  0.00    -0.039 A 
ATOM      5  C   UNL     1      -1.081  -1.769  -0.920  1.00  0.00     0.055 C 
ATOM      6  C   UNL     1      -2.146  -0.882  -0.198  1.00  0.00     0.068 C 
ATOM      7  C   UNL     1      -1.738   0.633  -0.178  1.00  0.00     0.044 C 
ATOM      8  C   UNL     1      -1.559   1.265  -1.539  1.00  0.00    -0.022 C 
ATOM      9  C   UNL     1      -0.732   2.308  -1.720  1.00  0.00     0.004 C 
ATOM     10  C   UNL     1       0.020   2.949  -0.582  1.00  0.00     0.178 C 
ATOM     11  C   UNL     1       0.361   2.023   0.627  1.00  0.00     0.217 C 
ATOM     12  O   UNL     1       1.780   1.655   0.673  1.00  0.00    -0.482 OA
ATOM     13  C   UNL     1       1.824   0.389   0.144  1.00  0.00     0.165 A 
ATOM     14  C   UNL     1       0.569  -0.176   0.051  1.00  0.00     0.012 A 
ATOM     15  C   UNL     1      -0.464   0.716   0.675  1.00  0.00     0.048 C 
ATOM     16  C   UNL     1      -0.747   0.238   2.121  1.00  0.00     0.032 C 
ATOM     17  C   UNL     1      -2.089  -0.499   2.254  1.00  0.00     0.085 C 
ATOM     18  N   UNL     1      -2.323  -1.448   1.167  1.00  0.00    -0.302 NA
ATOM     19  C   UNL     1      -3.606  -2.128   1.318  1.00  0.00     0.105 C 
ENDROOT
BRANCH   1  20
ATOM     20  O   UNL     1       4.149   0.352  -0.138  1.00  0.00    -0.493 OA
ATOM     21  C   UNL     1       5.303  -0.312  -0.631  1.00  0.00     0.278 C 
ENDBRANCH   1  20
BRANCH  10  22
ATOM     22  O   UNL     1       1.173   3.622  -1.077  1.00  0.00    -0.385 OA
ATOM     23  H   UNL     1       0.923   4.114  -1.874  1.00  0.00     0.211 HD
ENDBRANCH  10  22
TORSDOF 2
