REMARK SMILES Cc1nc2c([nH]1)-c1ccccc1N(C(=O)c1ccc(NC(=O)c3ccccc3-c3ccccc3)cc1)CC2
REMARK SMILES IDX 14 1 15 2 13 3 12 4 7 5 8 6 11 7 9 8 10 9 5 10 2 11 3 12
REMARK SMILES IDX 6 13 4 14 1 15 38 17 37 19 16 21 17 22 36 23 18 24 35 25
REMARK SMILES IDX 19 26 20 27 21 28 22 29 23 31 28 32 24 33 27 34 25 35 26 36
REMARK SMILES IDX 29 37 30 38 34 39 31 40 33 41 32 42
REMARK H PARENT 6 16 20 30
REMARK Flexibility Score:  137.900
ROOT
ATOM      1  C   UNL     1       2.274  -2.272   1.890  1.00  0.00     0.258 C 
ATOM      2  O   UNL     1       2.260  -2.902   2.945  1.00  0.00    -0.269 OA
ENDROOT
BRANCH   1   3
ATOM      3  N   UNL     1       3.406  -2.151   1.077  1.00  0.00    -0.307 N 
BRANCH   3   4
ATOM      4  C   UNL     1       3.370  -1.932  -0.336  1.00  0.00     0.053 A 
ATOM      5  C   UNL     1       4.306  -1.094  -0.993  1.00  0.00     0.024 A 
ATOM      6  C   UNL     1       4.284  -1.041  -2.401  1.00  0.00     0.012 A 
ATOM      7  C   UNL     1       2.410  -2.627  -1.095  1.00  0.00     0.027 A 
ATOM      8  C   UNL     1       3.338  -1.754  -3.139  1.00  0.00     0.001 A 
ATOM      9  C   UNL     1       2.392  -2.534  -2.486  1.00  0.00     0.002 A 
BRANCH   5  10
ATOM     10  C   UNL     1       5.214  -0.200  -0.254  1.00  0.00     0.071 A 
ATOM     11  C   UNL     1       6.423   1.622   0.213  1.00  0.00     0.103 A 
ATOM     12  N   UNL     1       6.435   0.914   1.318  1.00  0.00    -0.238 NA
ATOM     13  N   UNL     1       5.707   0.980  -0.763  1.00  0.00    -0.342 N 
ATOM     14  C   UNL     1       5.674  -0.203   1.056  1.00  0.00     0.068 A 
ATOM     15  C   UNL     1       7.051   2.945  -0.008  1.00  0.00     0.087 C 
ATOM     16  H   UNL     1       5.530   1.347  -1.686  1.00  0.00     0.168 HD
BRANCH  14  17
ATOM     17  C   UNL     1       5.417  -1.180   2.148  1.00  0.00     0.080 CG0
ATOM     18  G   UNL     1       4.720  -2.445   1.663  1.00  0.00     0.000 G0
ENDBRANCH  14  17
ENDBRANCH   5  10
ENDBRANCH   3   4
BRANCH   3  19
ATOM     19  C   UNL     1       4.720  -2.445   1.663  1.00  0.00     0.132 CG0
ATOM     20  G   UNL     1       5.417  -1.180   2.148  1.00  0.00     0.000 G0
ENDBRANCH   3  19
ENDBRANCH   1   3
BRANCH   1  21
ATOM     21  C   UNL     1       1.056  -1.492   1.539  1.00  0.00     0.040 A 
ATOM     22  C   UNL     1       1.157  -0.166   1.110  1.00  0.00     0.016 A 
ATOM     23  C   UNL     1      -0.206  -2.056   1.751  1.00  0.00     0.016 A 
ATOM     24  C   UNL     1      -0.000   0.579   0.867  1.00  0.00     0.027 A 
ATOM     25  C   UNL     1      -1.362  -1.304   1.508  1.00  0.00     0.027 A 
ATOM     26  C   UNL     1      -1.268   0.019   1.076  1.00  0.00     0.041 A 
BRANCH  26  27
ATOM     27  N   UNL     1      -2.378   0.860   0.859  1.00  0.00    -0.322 N 
ATOM     28  C   UNL     1      -3.709   0.575   1.101  1.00  0.00     0.256 C 
ATOM     29  O   UNL     1      -4.196  -0.470   1.506  1.00  0.00    -0.269 OA
ATOM     30  H   UNL     1      -2.168   1.798   0.546  1.00  0.00     0.170 HD
BRANCH  28  31
ATOM     31  C   UNL     1      -4.597   1.743   0.873  1.00  0.00     0.048 A 
ATOM     32  C   UNL     1      -5.559   1.747  -0.154  1.00  0.00    -0.006 A 
ATOM     33  C   UNL     1      -4.434   2.855   1.717  1.00  0.00     0.014 A 
ATOM     34  C   UNL     1      -6.345   2.905  -0.307  1.00  0.00     0.009 A 
ATOM     35  C   UNL     1      -5.222   3.991   1.538  1.00  0.00     0.001 A 
ATOM     36  C   UNL     1      -6.175   4.016   0.524  1.00  0.00     0.001 A 
BRANCH  32  37
ATOM     37  C   UNL     1      -5.759   0.624  -1.077  1.00  0.00    -0.018 A 
ATOM     38  C   UNL     1      -5.159   0.624  -2.347  1.00  0.00     0.009 A 
ATOM     39  C   UNL     1      -6.580  -0.459  -0.725  1.00  0.00     0.009 A 
ATOM     40  C   UNL     1      -5.378  -0.427  -3.241  1.00  0.00     0.001 A 
ATOM     41  C   UNL     1      -6.797  -1.511  -1.618  1.00  0.00     0.001 A 
ATOM     42  C   UNL     1      -6.199  -1.493  -2.876  1.00  0.00     0.000 A 
ENDBRANCH  32  37
ENDBRANCH  28  31
ENDBRANCH  26  27
ENDBRANCH   1  21
TORSDOF 5
