REMARK SMILES CC(=O)Oc1cccc(C)c1
REMARK SMILES IDX 4 1 2 2 3 3 1 4 5 5 11 6 6 7 9 8 7 9 8 10 10 11
REMARK H PARENT
ROOT
ATOM      1  O   UNL     1       1.769  -0.204   0.510  1.00  0.00    -0.427 OA
ENDROOT
BRANCH   1   2
ATOM      2  C   UNL     1       2.401   0.200  -0.661  1.00  0.00     0.308 C 
ATOM      3  O   UNL     1       1.890   0.365  -1.760  1.00  0.00    -0.252 OA
ATOM      4  C   UNL     1       3.858   0.408  -0.371  1.00  0.00     0.139 C 
ENDBRANCH   1   2
BRANCH   1   5
ATOM      5  C   UNL     1       0.393  -0.428   0.395  1.00  0.00     0.131 A 
ATOM      6  C   UNL     1      -0.488   0.626   0.149  1.00  0.00     0.050 A 
ATOM      7  C   UNL     1      -0.074  -1.719   0.629  1.00  0.00     0.047 A 
ATOM      8  C   UNL     1      -1.864   0.379   0.088  1.00  0.00    -0.047 A 
ATOM      9  C   UNL     1      -1.444  -1.966   0.585  1.00  0.00     0.004 A 
ATOM     10  C   UNL     1      -2.335  -0.922   0.318  1.00  0.00     0.003 A 
ATOM     11  C   UNL     1      -2.826   1.502  -0.161  1.00  0.00     0.044 C 
ENDBRANCH   1   5
TORSDOF 2
