REMARK SMILES N#Cc1ccc(Oc2ccc3c(c2)COB3O)cc1
REMARK SMILES IDX 16 1 15 2 14 3 12 4 13 5 8 6 9 7 10 8 11 9 17 10 7 12 6 13
REMARK SMILES IDX 5 14 18 15 4 16 19 17 3 18 2 19 1 20
REMARK H PARENT 17 11
ROOT
ATOM      1  B   UNL     1       4.750   0.469   0.316  1.00  0.00     0.491 B 
ATOM      2  O   UNL     1       5.073  -0.204  -0.964  1.00  0.00    -0.403 OA
ATOM      3  C   UNL     1       4.062  -1.126  -1.148  1.00  0.00     0.177 C 
ATOM      4  C   UNL     1       2.824  -0.510  -0.570  1.00  0.00    -0.020 A 
ATOM      5  C   UNL     1       1.519  -0.756  -0.787  1.00  0.00     0.052 A 
ATOM      6  C   UNL     1       0.469  -0.061  -0.136  1.00  0.00     0.127 A 
ATOM      7  C   UNL     1       0.880   0.903   0.752  1.00  0.00     0.047 A 
ATOM      8  C   UNL     1       2.226   1.182   0.999  1.00  0.00     0.004 A 
ATOM      9  C   UNL     1       3.183   0.466   0.329  1.00  0.00    -0.012 A 
ENDROOT
BRANCH   1  10
ATOM     10  O   UNL     1       5.622   1.260   1.162  1.00  0.00    -0.423 OA
ATOM     11  H   UNL     1       6.447   0.821   1.431  1.00  0.00     0.189 HD
ENDBRANCH   1  10
BRANCH   6  12
ATOM     12  O   UNL     1      -0.766  -0.427  -0.464  1.00  0.00    -0.457 OA
BRANCH  12  13
ATOM     13  C   UNL     1      -2.047  -0.207  -0.265  1.00  0.00     0.127 A 
ATOM     14  C   UNL     1      -2.951  -1.028  -0.989  1.00  0.00     0.048 A 
ATOM     15  C   UNL     1      -2.664   0.714   0.554  1.00  0.00     0.048 A 
ATOM     16  C   UNL     1      -4.299  -0.912  -0.881  1.00  0.00     0.023 A 
ATOM     17  C   UNL     1      -4.030   0.847   0.677  1.00  0.00     0.023 A 
ATOM     18  C   UNL     1      -4.836   0.016  -0.056  1.00  0.00     0.052 A 
ATOM     19  C   UNL     1      -6.254   0.170   0.086  1.00  0.00     0.099 C 
ATOM     20  N   UNL     1      -7.394   0.296   0.220  1.00  0.00    -0.192 NA
ENDBRANCH  12  13
ENDBRANCH   6  12
TORSDOF 3
