REMARK SMILES C/C=C/C(=O)N(CC)C(CC)C(=O)N(C)C
REMARK SMILES IDX 6 1 9 2 10 3 11 4 12 5 13 6 14 7 15 8 16 9 7 10 8 11 4 12
REMARK SMILES IDX 5 13 3 14 2 15 1 16
REMARK H PARENT
ROOT
ATOM      1  N   UNL     1       0.464  -0.940  -0.033  1.00  0.00    -0.327 N 
ENDROOT
BRANCH   1   2
ATOM      2  C   UNL     1      -0.357   0.193   0.472  1.00  0.00     0.174 C 
BRANCH   2   3
ATOM      3  C   UNL     1      -1.370  -0.177   1.570  1.00  0.00     0.032 C 
ATOM      4  C   UNL     1      -0.686  -0.637   2.855  1.00  0.00     0.006 C 
ENDBRANCH   2   3
BRANCH   2   5
ATOM      5  C   UNL     1      -0.814   1.164  -0.659  1.00  0.00     0.244 C 
ATOM      6  O   UNL     1       0.041   1.921  -1.143  1.00  0.00    -0.273 OA
ATOM      7  N   UNL     1      -2.108   1.175  -1.158  1.00  0.00    -0.347 N 
ATOM      8  C   UNL     1      -2.476   2.229  -2.095  1.00  0.00     0.146 C 
ATOM      9  C   UNL     1      -3.148   0.202  -0.888  1.00  0.00     0.146 C 
ENDBRANCH   2   5
ENDBRANCH   1   2
BRANCH   1  10
ATOM     10  C   UNL     1      -0.199  -2.089  -0.650  1.00  0.00     0.117 C 
ATOM     11  C   UNL     1      -0.281  -1.974  -2.166  1.00  0.00     0.027 C 
ENDBRANCH   1  10
BRANCH   1  12
ATOM     12  C   UNL     1       1.859  -0.953  -0.073  1.00  0.00     0.246 C 
ATOM     13  O   UNL     1       2.505  -1.941  -0.424  1.00  0.00    -0.270 OA
BRANCH  12  14
ATOM     14  C   UNL     1       2.584   0.279   0.331  1.00  0.00     0.067 C 
ATOM     15  C   UNL     1       3.747   0.185   0.994  1.00  0.00    -0.025 C 
ATOM     16  C   UNL     1       4.570   1.361   1.400  1.00  0.00     0.036 C 
ENDBRANCH  12  14
ENDBRANCH   1  12
TORSDOF 6
