REMARK SMILES CC(=O)Oc1ccc(C(=C2CCCCC2)c2ccc(OC(C)=O)cc2)cc1
REMARK SMILES IDX 9 1 10 2 11 3 12 4 13 5 14 6 15 7 8 8 5 9 6 10 27 11 7 12
REMARK SMILES IDX 26 13 4 14 2 15 3 16 1 17 16 18 17 19 25 20 18 21 24 22
REMARK SMILES IDX 19 23 20 24 21 25 23 26 22 27
REMARK H PARENT
ROOT
ATOM      1  C   UNL     1      -0.047  -0.597  -0.067  1.00  0.00    -0.012 C 
ATOM      2  C   UNL     1      -0.505  -1.860  -0.286  1.00  0.00    -0.062 C 
ATOM      3  C   UNL     1       0.416  -3.052  -0.521  1.00  0.00     0.031 C 
ATOM      4  C   UNL     1      -0.215  -4.362  -0.053  1.00  0.00     0.004 C 
ATOM      5  C   UNL     1      -1.524  -4.666  -0.781  1.00  0.00     0.001 C 
ATOM      6  C   UNL     1      -2.268  -3.409  -1.231  1.00  0.00     0.004 C 
ATOM      7  C   UNL     1      -1.988  -2.214  -0.320  1.00  0.00     0.031 C 
ENDROOT
BRANCH   1   8
ATOM      8  C   UNL     1      -1.004   0.497   0.242  1.00  0.00    -0.018 A 
ATOM      9  C   UNL     1      -2.786   2.560   0.810  1.00  0.00     0.130 A 
ATOM     10  C   UNL     1      -2.558   1.573   1.767  1.00  0.00     0.048 A 
ATOM     11  C   UNL     1      -2.116   2.553  -0.411  1.00  0.00     0.048 A 
ATOM     12  C   UNL     1      -1.667   0.538   1.478  1.00  0.00     0.012 A 
ATOM     13  C   UNL     1      -1.226   1.516  -0.696  1.00  0.00     0.012 A 
BRANCH   9  14
ATOM     14  O   UNL     1      -3.634   3.633   1.093  1.00  0.00    -0.427 OA
BRANCH  14  15
ATOM     15  C   UNL     1      -4.985   3.307   1.058  1.00  0.00     0.308 C 
ATOM     16  O   UNL     1      -5.477   2.214   0.815  1.00  0.00    -0.252 OA
ATOM     17  C   UNL     1      -5.782   4.538   1.375  1.00  0.00     0.139 C 
ENDBRANCH  14  15
ENDBRANCH   9  14
ENDBRANCH   1   8
BRANCH   1  18
ATOM     18  C   UNL     1       1.409  -0.310  -0.137  1.00  0.00    -0.018 A 
ATOM     19  C   UNL     1       2.119  -0.000   1.032  1.00  0.00     0.012 A 
ATOM     20  C   UNL     1       2.079  -0.320  -1.371  1.00  0.00     0.012 A 
ATOM     21  C   UNL     1       3.483   0.288   0.973  1.00  0.00     0.048 A 
ATOM     22  C   UNL     1       3.443  -0.033  -1.436  1.00  0.00     0.048 A 
ATOM     23  C   UNL     1       4.126   0.282  -0.263  1.00  0.00     0.130 A 
BRANCH  23  24
ATOM     24  O   UNL     1       5.499   0.520  -0.330  1.00  0.00    -0.427 OA
BRANCH  24  25
ATOM     25  C   UNL     1       5.821   1.872  -0.351  1.00  0.00     0.308 C 
ATOM     26  O   UNL     1       5.046   2.818  -0.328  1.00  0.00    -0.252 OA
ATOM     27  C   UNL     1       7.313   2.009  -0.422  1.00  0.00     0.139 C 
ENDBRANCH  24  25
ENDBRANCH  23  24
ENDBRANCH   1  18
TORSDOF 6
