REMARK SMILES CNC(C)CC1CCCC1
REMARK SMILES IDX 3 1 4 2 2 3 1 4 5 6 6 7 7 8 10 9 8 10 9 11
REMARK H PARENT 2 5
ROOT
ATOM      1  C   UNL     1       1.521   0.145   0.464  1.00  0.00     0.050 C 
ATOM      2  C   UNL     1       1.501  -1.349   0.792  1.00  0.00     0.024 C 
ENDROOT
BRANCH   1   3
ATOM      3  N   UNL     1       2.817   0.539  -0.112  1.00  0.00    -0.317 NA
ATOM      4  C   UNL     1       3.875   0.662   0.879  1.00  0.00     0.101 C 
ATOM      5  H   UNL     1       3.094  -0.125  -0.835  1.00  0.00     0.122 HD
ENDBRANCH   1   3
BRANCH   1   6
ATOM      6  C   UNL     1       0.442   0.548  -0.567  1.00  0.00     0.022 C 
BRANCH   6   7
ATOM      7  C   UNL     1      -1.010   0.394  -0.092  1.00  0.00    -0.010 C 
ATOM      8  C   UNL     1      -1.970   1.238  -0.939  1.00  0.00     0.003 C 
ATOM      9  C   UNL     1      -1.584  -1.029  -0.193  1.00  0.00     0.003 C 
ATOM     10  C   UNL     1      -3.320   0.592  -0.687  1.00  0.00     0.000 C 
ATOM     11  C   UNL     1      -3.005  -0.892  -0.743  1.00  0.00     0.000 C 
ENDBRANCH   6   7
ENDBRANCH   1   6
TORSDOF 3
