REMARK SMILES CN(C)CCOC(=O)CCC1CCCCC1
REMARK SMILES IDX 6 1 5 2 4 3 2 4 1 5 3 6 7 7 8 8 9 9 10 10 11 11 12 12 16 13
REMARK SMILES IDX 13 14 15 15 14 16
REMARK H PARENT
ROOT
ATOM      1  O   UNL     1       1.217  -0.943   0.411  1.00  0.00    -0.464 OA
ENDROOT
BRANCH   1   2
ATOM      2  C   UNL     1       2.188   0.004   0.895  1.00  0.00     0.248 C 
BRANCH   2   3
ATOM      3  C   UNL     1       3.574  -0.285   0.298  1.00  0.00     0.125 C 
BRANCH   3   4
ATOM      4  N   UNL     1       4.662   0.512   0.896  1.00  0.00    -0.306 NA
ATOM      5  C   UNL     1       4.549   1.929   0.539  1.00  0.00     0.105 C 
ATOM      6  C   UNL     1       5.960  -0.003   0.450  1.00  0.00     0.105 C 
ENDBRANCH   3   4
ENDBRANCH   2   3
ENDBRANCH   1   2
BRANCH   1   7
ATOM      7  C   UNL     1       0.693  -0.669  -0.814  1.00  0.00     0.305 C 
ATOM      8  O   UNL     1       1.018   0.271  -1.527  1.00  0.00    -0.252 OA
BRANCH   7   9
ATOM      9  C   UNL     1      -0.323  -1.712  -1.208  1.00  0.00     0.123 C 
BRANCH   9  10
ATOM     10  C   UNL     1      -1.498  -1.845  -0.238  1.00  0.00     0.015 C 
BRANCH  10  11
ATOM     11  C   UNL     1      -2.598  -0.778  -0.419  1.00  0.00    -0.011 C 
ATOM     12  C   UNL     1      -2.114   0.644  -0.076  1.00  0.00     0.003 C 
ATOM     13  C   UNL     1      -3.833  -1.136   0.418  1.00  0.00     0.003 C 
ATOM     14  C   UNL     1      -3.235   1.595   0.355  1.00  0.00     0.000 C 
ATOM     15  C   UNL     1      -5.005  -0.189   0.148  1.00  0.00     0.000 C 
ATOM     16  C   UNL     1      -4.572   1.218  -0.264  1.00  0.00     0.000 C 
ENDBRANCH  10  11
ENDBRANCH   9  10
ENDBRANCH   7   9
ENDBRANCH   1   7
TORSDOF 7
