REMARK SMILES C[C@]1(COc2ccc(N3CCC(Oc4ccc(OC(F)(F)F)cc4)CC3)cc2)Cn2cc([N+](=O)[O-])nc2O1
REMARK SMILES IDX 5 1 6 2 7 3 8 4 27 5 28 6 4 7 3 8 2 9 29 10 38 11 30 12
REMARK SMILES IDX 37 13 31 14 36 15 32 16 1 17 33 18 34 19 35 20 9 21 10 22
REMARK SMILES IDX 26 23 11 24 25 25 12 26 13 27 14 28 15 29 24 30 16 31 23 32
REMARK SMILES IDX 17 33 18 34 19 35 20 36 21 37 22 38
REMARK H PARENT
ROOT
ATOM      1  C   UNL     1      -2.898   1.065  -0.034  1.00  0.00     0.119 A 
ATOM      2  C   UNL     1      -2.166   1.693  -1.038  1.00  0.00     0.048 A 
ATOM      3  C   UNL     1      -0.765   1.678  -1.017  1.00  0.00     0.030 A 
ATOM      4  C   UNL     1      -0.042   1.037   0.002  1.00  0.00     0.037 A 
ATOM      5  C   UNL     1      -0.805   0.419   1.004  1.00  0.00     0.030 A 
ATOM      6  C   UNL     1      -2.210   0.434   0.996  1.00  0.00     0.048 A 
ENDROOT
BRANCH   1   7
ATOM      7  O   UNL     1      -4.256   1.139  -0.173  1.00  0.00    -0.489 OA
BRANCH   7   8
ATOM      8  C   UNL     1      -5.039   0.440   0.796  1.00  0.00     0.279 C 
BRANCH   8   9
ATOM      9  C   UNL     1      -6.527   0.561   0.438  1.00  0.00     0.163 C 
ATOM     10  C   UNL     1      -6.830  -0.027  -0.973  1.00  0.00     0.181 C 
ATOM     11  O   UNL     1      -7.288  -0.233   1.411  1.00  0.00    -0.434 OA
ATOM     12  N   UNL     1      -7.771  -1.064  -0.629  1.00  0.00    -0.268 N 
ATOM     13  C   UNL     1      -7.964  -1.126   0.704  1.00  0.00     0.415 A 
ATOM     14  C   UNL     1      -8.532  -1.988  -1.245  1.00  0.00     0.200 A 
ATOM     15  N   UNL     1      -8.783  -2.076   1.054  1.00  0.00     0.022 NA
ATOM     16  C   UNL     1      -9.159  -2.626  -0.175  1.00  0.00     0.385 A 
ATOM     17  C   UNL     1      -7.009   2.008   0.542  1.00  0.00     0.063 C 
BRANCH  16  18
ATOM     18  N   UNL     1     -10.099  -3.726  -0.247  1.00  0.00    -0.022 N 
ATOM     19  O   UNL     1     -10.381  -4.136  -1.381  1.00  0.00    -0.358 OA
ATOM     20  O   UNL     1     -10.553  -4.178   0.814  1.00  0.00    -0.358 OA
ENDBRANCH  16  18
ENDBRANCH   8   9
ENDBRANCH   7   8
ENDBRANCH   1   7
BRANCH   4  21
ATOM     21  N   UNL     1       1.349   1.005  -0.006  1.00  0.00    -0.371 N 
ATOM     22  C   UNL     1       2.085   2.132  -0.600  1.00  0.00     0.120 C 
ATOM     23  C   UNL     1       2.092   0.083   0.858  1.00  0.00     0.120 C 
ATOM     24  C   UNL     1       3.446   2.300   0.059  1.00  0.00     0.066 C 
ATOM     25  C   UNL     1       3.453  -0.236   0.247  1.00  0.00     0.066 C 
ATOM     26  C   UNL     1       4.277   1.023  -0.064  1.00  0.00     0.176 C 
BRANCH  26  27
ATOM     27  O   UNL     1       5.377   1.157   0.852  1.00  0.00    -0.490 OA
BRANCH  27  28
ATOM     28  C   UNL     1       6.526   0.460   0.611  1.00  0.00     0.119 A 
ATOM     29  C   UNL     1       6.708  -0.541  -0.346  1.00  0.00     0.050 A 
ATOM     30  C   UNL     1       7.593   0.801   1.442  1.00  0.00     0.050 A 
ATOM     31  C   UNL     1       7.938  -1.205  -0.460  1.00  0.00     0.050 A 
ATOM     32  C   UNL     1       8.823   0.149   1.322  1.00  0.00     0.050 A 
ATOM     33  C   UNL     1       8.995  -0.874   0.386  1.00  0.00     0.129 A 
BRANCH  33  34
ATOM     34  O   UNL     1      10.234  -1.450   0.369  1.00  0.00    -0.406 OA
BRANCH  34  35
ATOM     35  C   UNL     1      10.288  -2.806  -0.041  1.00  0.00     0.573 C 
ATOM     36  F   UNL     1       9.370  -3.555   0.609  1.00  0.00    -0.132 F 
ATOM     37  F   UNL     1      11.512  -3.297   0.254  1.00  0.00    -0.132 F 
ATOM     38  F   UNL     1      10.103  -2.923  -1.372  1.00  0.00    -0.132 F 
ENDBRANCH  34  35
ENDBRANCH  33  34
ENDBRANCH  27  28
ENDBRANCH  26  27
ENDBRANCH   4  21
TORSDOF 9
