REMARK SMILES CC(C)Nc1cccnc1N1CCN(C(=O)c2cc3cc(NS(C)(=O)=O)ccc3[nH]2)CC1
REMARK SMILES IDX 11 1 12 2 13 3 14 4 31 5 32 6 15 7 16 8 10 9 5 10 6 11 9 12
REMARK SMILES IDX 7 13 8 14 4 15 2 17 1 18 3 19 17 20 18 21 30 22 19 23 29 24
REMARK SMILES IDX 20 25 28 26 21 27 27 28 22 30 23 32 25 33 26 34 24 35
REMARK H PARENT 4 16 30 29 22 31
ROOT
ATOM      1  N   UNL     1       2.485   0.886   0.066  1.00  0.00    -0.351 N 
ATOM      2  C   UNL     1       2.423   1.097   1.544  1.00  0.00     0.139 C 
ATOM      3  C   UNL     1       1.389   2.169   1.932  1.00  0.00     0.141 C 
ATOM      4  N   UNL     1       0.078   1.893   1.328  1.00  0.00    -0.334 N 
ATOM      5  C   UNL     1       0.124   1.595  -0.116  1.00  0.00     0.141 C 
ATOM      6  C   UNL     1       1.541   1.713  -0.713  1.00  0.00     0.139 C 
ATOM      7  C   UNL     1      -0.899   1.323   2.153  1.00  0.00     0.270 C 
ATOM      8  O   UNL     1      -0.664   1.043   3.326  1.00  0.00    -0.267 OA
ENDROOT
BRANCH   1   9
ATOM      9  C   UNL     1       3.830   1.040  -0.386  1.00  0.00     0.152 A 
ATOM     10  C   UNL     1       4.730  -0.050  -0.183  1.00  0.00     0.078 A 
ATOM     11  C   UNL     1       6.062   0.157  -0.535  1.00  0.00     0.031 A 
ATOM     12  N   UNL     1       4.200   2.199  -0.979  1.00  0.00    -0.237 NA
ATOM     13  C   UNL     1       6.453   1.356  -1.126  1.00  0.00     0.022 A 
ATOM     14  C   UNL     1       5.495   2.328  -1.334  1.00  0.00     0.113 A 
BRANCH  10  15
ATOM     15  N   UNL     1       4.257  -1.226   0.430  1.00  0.00    -0.380 N 
ATOM     16  H   UNL     1       3.233  -1.153   0.401  1.00  0.00     0.160 HD
BRANCH  15  17
ATOM     17  C   UNL     1       4.685  -2.577   0.050  1.00  0.00     0.073 C 
ATOM     18  C   UNL     1       4.795  -2.783  -1.458  1.00  0.00     0.030 C 
ATOM     19  C   UNL     1       5.932  -3.020   0.806  1.00  0.00     0.030 C 
ENDBRANCH  15  17
ENDBRANCH  10  15
ENDBRANCH   1   9
BRANCH   7  20
ATOM     20  C   UNL     1      -2.204   1.083   1.572  1.00  0.00     0.105 A 
ATOM     21  C   UNL     1      -3.064   0.028   1.824  1.00  0.00     0.042 A 
ATOM     22  N   UNL     1      -2.870   1.934   0.720  1.00  0.00    -0.351 N 
ATOM     23  C   UNL     1      -4.243   0.215   1.057  1.00  0.00     0.002 A 
ATOM     24  C   UNL     1      -4.099   1.420   0.374  1.00  0.00     0.046 A 
ATOM     25  C   UNL     1      -5.427  -0.527   0.890  1.00  0.00     0.037 A 
ATOM     26  C   UNL     1      -5.093   1.935  -0.465  1.00  0.00     0.029 A 
ATOM     27  C   UNL     1      -6.425  -0.039   0.042  1.00  0.00     0.049 A 
ATOM     28  C   UNL     1      -6.262   1.180  -0.618  1.00  0.00     0.029 A 
ATOM     29  H   UNL     1      -2.512   2.828   0.416  1.00  0.00     0.167 HD
BRANCH  27  30
ATOM     30  N   UNL     1      -7.626  -0.774  -0.176  1.00  0.00    -0.284 N 
ATOM     31  H   UNL     1      -8.452  -0.256  -0.471  1.00  0.00     0.180 HD
BRANCH  30  32
ATOM     32  S   UNL     1      -7.558  -2.314  -0.848  1.00  0.00     0.229 S 
ATOM     33  O   UNL     1      -6.718  -3.171  -0.042  1.00  0.00    -0.207 OA
ATOM     34  O   UNL     1      -8.931  -2.671  -1.141  1.00  0.00    -0.207 OA
ATOM     35  C   UNL     1      -6.741  -2.023  -2.405  1.00  0.00     0.183 C 
ENDBRANCH  30  32
ENDBRANCH  27  30
ENDBRANCH   7  20
TORSDOF 6
