REMARK SMILES CN(C)[C@@H]1C(O)=C(C(N)=O)C(=O)[C@@]2(O)C(O)=C3C(=O)c4c(O)ccc(Cl)c4[C@@H](O)[C@H]3C[C@@H]12
REMARK SMILES IDX 4 1 32 2 31 3 30 4 28 5 27 6 25 7 26 8 24 9 23 10 21 11
REMARK SMILES IDX 20 12 18 13 19 14 17 15 15 16 13 17 11 18 12 19 7 20 5 21
REMARK SMILES IDX 2 22 1 23 3 24 6 25 14 27 8 29 9 30 10 31 16 34 29 36 22 38
REMARK H PARENT 6 26 14 28 9 32 9 33 16 35 29 37 22 39
ROOT
ATOM      1  C   UNL     1      -2.482  -1.383  -0.115  1.00  0.00     0.130 C 
ATOM      2  C   UNL     1      -1.049  -0.877  -0.440  1.00  0.00     0.062 C 
ATOM      3  C   UNL     1      -0.177  -0.945   0.839  1.00  0.00     0.021 C 
ATOM      4  C   UNL     1       1.296  -0.610   0.553  1.00  0.00     0.061 C 
ATOM      5  C   UNL     1       2.092  -0.433   1.861  1.00  0.00     0.154 C 
ATOM      6  C   UNL     1       3.535  -0.089   1.595  1.00  0.00     0.015 A 
ATOM      7  C   UNL     1       4.566  -0.478   2.472  1.00  0.00     0.047 A 
ATOM      8  Cl  UNL     1       4.249  -1.386   3.908  1.00  0.00    -0.084 Cl
ATOM      9  C   UNL     1       5.895  -0.120   2.224  1.00  0.00     0.025 A 
ATOM     10  C   UNL     1       6.217   0.641   1.105  1.00  0.00     0.048 A 
ATOM     11  C   UNL     1       5.211   1.048   0.236  1.00  0.00     0.127 A 
ATOM     12  C   UNL     1       3.873   0.687   0.468  1.00  0.00     0.071 A 
ATOM     13  C   UNL     1       2.820   1.153  -0.473  1.00  0.00     0.197 C 
ATOM     14  O   UNL     1       3.091   1.986  -1.338  1.00  0.00    -0.289 OA
ATOM     15  C   UNL     1       1.448   0.581  -0.353  1.00  0.00     0.047 C 
ATOM     16  C   UNL     1       0.427   1.092  -1.072  1.00  0.00     0.140 C 
ATOM     17  C   UNL     1      -1.006   0.553  -1.011  1.00  0.00     0.190 C 
ATOM     18  C   UNL     1      -1.885   1.533  -0.194  1.00  0.00     0.211 C 
ATOM     19  O   UNL     1      -1.614   2.738  -0.101  1.00  0.00    -0.290 OA
ATOM     20  C   UNL     1      -3.134   1.021   0.451  1.00  0.00     0.125 C 
ATOM     21  C   UNL     1      -3.390  -0.306   0.468  1.00  0.00     0.126 C 
ENDROOT
BRANCH   1  22
ATOM     22  N   UNL     1      -3.186  -2.186  -1.137  1.00  0.00    -0.299 NA
ATOM     23  C   UNL     1      -3.398  -1.555  -2.428  1.00  0.00     0.105 C 
ATOM     24  C   UNL     1      -2.633  -3.528  -1.291  1.00  0.00     0.105 C 
ENDBRANCH   1  22
BRANCH  21  25
ATOM     25  O   UNL     1      -4.504  -0.854   1.106  1.00  0.00    -0.510 OA
ATOM     26  H   UNL     1      -5.071  -0.134   1.463  1.00  0.00     0.293 HD
ENDBRANCH  21  25
BRANCH  17  27
ATOM     27  O   UNL     1      -1.486   0.572  -2.357  1.00  0.00    -0.374 OA
ATOM     28  H   UNL     1      -1.089   1.377  -2.755  1.00  0.00     0.212 HD
ENDBRANCH  17  27
BRANCH  20  29
ATOM     29  C   UNL     1      -4.118   1.944   1.105  1.00  0.00     0.255 C 
ATOM     30  N   UNL     1      -3.880   3.277   1.024  1.00  0.00    -0.365 N 
ATOM     31  O   UNL     1      -5.109   1.529   1.702  1.00  0.00    -0.269 OA
ATOM     32  H   UNL     1      -3.035   3.641   0.585  1.00  0.00     0.159 HD
ATOM     33  H   UNL     1      -4.512   3.923   1.474  1.00  0.00     0.159 HD
ENDBRANCH  20  29
BRANCH  16  34
ATOM     34  O   UNL     1       0.599   2.107  -2.010  1.00  0.00    -0.508 OA
ATOM     35  H   UNL     1       1.534   2.412  -1.975  1.00  0.00     0.293 HD
ENDBRANCH  16  34
BRANCH   5  36
ATOM     36  O   UNL     1       1.521   0.612   2.643  1.00  0.00    -0.388 OA
ATOM     37  H   UNL     1       1.984   0.625   3.501  1.00  0.00     0.211 HD
ENDBRANCH   5  36
BRANCH  11  38
ATOM     38  O   UNL     1       5.616   1.806  -0.828  1.00  0.00    -0.507 OA
ATOM     39  H   UNL     1       4.819   2.115  -1.314  1.00  0.00     0.293 HD
ENDBRANCH  11  38
TORSDOF 7
