REMARK SMILES CC(=O)[C@@]1(C)CC[C@H]2[C@@H]3CCC4=CC(=O)CCC4=C3CC[C@@]21C
REMARK SMILES IDX 4 1 5 2 6 3 7 4 8 5 9 6 10 7 11 8 12 9 13 10 14 11 15 12
REMARK SMILES IDX 16 13 17 14 18 15 19 16 20 17 21 18 22 19 23 20 2 21 3 22
REMARK SMILES IDX 1 23
REMARK H PARENT
ROOT
ATOM      1  C   UNL     1      -3.046  -0.230   0.127  1.00  0.00     0.032 C 
ATOM      2  C   UNL     1      -3.297  -0.848   1.521  1.00  0.00     0.020 C 
ATOM      3  C   UNL     1      -3.090  -1.394  -0.924  1.00  0.00     0.015 C 
ATOM      4  C   UNL     1      -1.637  -1.785  -1.244  1.00  0.00     0.006 C 
ATOM      5  C   UNL     1      -0.794  -0.966  -0.275  1.00  0.00     0.003 C 
ATOM      6  C   UNL     1       0.668  -0.700  -0.638  1.00  0.00     0.019 C 
ATOM      7  C   UNL     1       1.460  -1.983  -0.902  1.00  0.00     0.013 C 
ATOM      8  C   UNL     1       2.887  -1.619  -1.305  1.00  0.00     0.036 C 
ATOM      9  C   UNL     1       3.531  -0.597  -0.395  1.00  0.00    -0.041 C 
ATOM     10  C   UNL     1       4.856  -0.388  -0.489  1.00  0.00     0.051 C 
ATOM     11  C   UNL     1       5.534   0.651   0.319  1.00  0.00     0.156 C 
ATOM     12  O   UNL     1       6.750   0.798   0.220  1.00  0.00    -0.295 OA
ATOM     13  C   UNL     1       4.680   1.547   1.176  1.00  0.00     0.085 C 
ATOM     14  C   UNL     1       3.473   0.781   1.695  1.00  0.00     0.044 C 
ATOM     15  C   UNL     1       2.692   0.123   0.574  1.00  0.00    -0.045 C 
ATOM     16  C   UNL     1       1.339   0.094   0.485  1.00  0.00    -0.063 C 
ATOM     17  C   UNL     1       0.406   0.686   1.533  1.00  0.00     0.032 C 
ATOM     18  C   UNL     1      -0.965   1.188   1.040  1.00  0.00     0.012 C 
ATOM     19  C   UNL     1      -1.600   0.349  -0.093  1.00  0.00    -0.017 C 
ATOM     20  C   UNL     1      -1.571   1.233  -1.381  1.00  0.00     0.013 C 
ENDROOT
BRANCH   1  21
ATOM     21  C   UNL     1      -4.178   0.789  -0.136  1.00  0.00     0.136 C 
ATOM     22  O   UNL     1      -4.979   0.654  -1.063  1.00  0.00    -0.299 OA
ATOM     23  C   UNL     1      -4.314   1.973   0.793  1.00  0.00     0.088 C 
ENDBRANCH   1  21
TORSDOF 1
