REMARK SMILES O=C1CN=C(c2ccccc2F)c2cc(Cl)ccc2N1
REMARK SMILES IDX 19 1 18 2 17 3 15 4 16 5 14 6 13 7 5 8 4 9 6 10 11 11 10 12
REMARK SMILES IDX 7 13 9 14 8 15 12 16 3 17 20 19 2 20 1 21
REMARK H PARENT 20 22
REMARK Flexibility Score:   20.900
ROOT
ATOM      1  C   UNL     1      -2.015   0.403   0.657  1.00  0.00     0.050 A 
ATOM      2  C   UNL     1      -2.598   1.589   1.128  1.00  0.00     0.028 A 
ATOM      3  C   UNL     1      -2.070   2.833   0.779  1.00  0.00     0.023 A 
ATOM      4  C   UNL     1      -0.944   2.899  -0.034  1.00  0.00     0.041 A 
ATOM      5  Cl  UNL     1      -0.297   4.430  -0.474  1.00  0.00    -0.084 Cl
ATOM      6  C   UNL     1      -0.325   1.732  -0.475  1.00  0.00     0.033 A 
ATOM      7  C   UNL     1      -0.841   0.475  -0.114  1.00  0.00     0.025 A 
ENDROOT
BRANCH   7   8
ATOM      8  C   UNL     1      -0.034  -0.736  -0.447  1.00  0.00     0.078 C 
ATOM      9  N   UNL     1      -0.499  -1.882  -0.806  1.00  0.00    -0.274 NA
BRANCH   8  10
ATOM     10  C   UNL     1       1.440  -0.638  -0.307  1.00  0.00     0.036 A 
ATOM     11  C   UNL     1       2.257  -0.780  -1.427  1.00  0.00     0.132 A 
ATOM     12  C   UNL     1       3.641  -0.693  -1.300  1.00  0.00     0.040 A 
ATOM     13  C   UNL     1       2.004  -0.415   0.954  1.00  0.00     0.013 A 
ATOM     14  C   UNL     1       4.209  -0.468  -0.045  1.00  0.00     0.003 A 
ATOM     15  C   UNL     1       3.392  -0.329   1.080  1.00  0.00     0.001 A 
ATOM     16  F   UNL     1       1.731  -0.955  -2.647  1.00  0.00    -0.206 F 
ENDBRANCH   8  10
BRANCH   9  17
ATOM     17  C   UNL     1      -1.935  -2.051  -0.977  1.00  0.00     0.243 CG0
ATOM     18  G   UNL     1      -2.648  -1.984   0.360  1.00  0.00     0.000 G0
ENDBRANCH   9  17
ENDBRANCH   7   8
BRANCH   1  19
ATOM     19  N   UNL     1      -2.659  -0.787   1.025  1.00  0.00    -0.324 N 
ATOM     20  C   UNL     1      -2.648  -1.984   0.360  1.00  0.00     0.246 CG0
ATOM     21  O   UNL     1      -3.295  -2.928   0.816  1.00  0.00    -0.273 OA
ATOM     22  H   UNL     1      -3.335  -0.772   1.778  1.00  0.00     0.170 HD
ATOM     23  G   UNL     1      -1.935  -2.051  -0.977  1.00  0.00     0.000 G0
ENDBRANCH   1  19
TORSDOF 1
