REMARK SMILES CNCCCN1c2ccccc2CCc2ccccc21
REMARK SMILES IDX 4 1 3 2 2 3 1 4 5 6 6 7 7 8 8 9 12 10 9 11 11 12 10 13 13 14
REMARK SMILES IDX 20 16 15 17 19 18 16 19 18 20 17 21 14 22
REMARK H PARENT 2 5
REMARK Flexibility Score:   60.900
ROOT
ATOM      1  C   UNL     1       1.615   0.524  -0.856  1.00  0.00     0.037 C 
ENDROOT
BRANCH   1   2
ATOM      2  C   UNL     1       3.029   1.055  -1.121  1.00  0.00     0.082 C 
BRANCH   2   3
ATOM      3  N   UNL     1       4.101   0.486  -0.305  1.00  0.00    -0.320 NA
ATOM      4  C   UNL     1       4.309  -0.935  -0.544  1.00  0.00     0.101 C 
ATOM      5  H   UNL     1       3.937   0.649   0.686  1.00  0.00     0.122 HD
ENDBRANCH   2   3
ENDBRANCH   1   2
BRANCH   1   6
ATOM      6  C   UNL     1       1.117   0.826   0.562  1.00  0.00     0.124 C 
BRANCH   6   7
ATOM      7  N   UNL     1      -0.270   0.327   0.776  1.00  0.00    -0.341 N 
BRANCH   7   8
ATOM      8  C   UNL     1      -1.235   1.337   0.536  1.00  0.00     0.044 A 
ATOM      9  C   UNL     1      -1.271   2.459   1.387  1.00  0.00     0.026 A 
ATOM     10  C   UNL     1      -2.153   1.283  -0.521  1.00  0.00    -0.024 A 
ATOM     11  C   UNL     1      -2.172   3.506   1.184  1.00  0.00     0.002 A 
ATOM     12  C   UNL     1      -3.055   2.343  -0.726  1.00  0.00     0.006 A 
ATOM     13  C   UNL     1      -3.062   3.449   0.120  1.00  0.00     0.000 A 
BRANCH  10  14
ATOM     14  C   UNL     1      -2.188   0.094  -1.437  1.00  0.00     0.042 CG0
ATOM     15  G   UNL     1      -2.586  -1.150  -0.660  1.00  0.00     0.000 G0
ENDBRANCH  10  14
ENDBRANCH   7   8
BRANCH   7  16
ATOM     16  C   UNL     1      -0.441  -1.083   0.803  1.00  0.00     0.044 A 
ATOM     17  C   UNL     1      -1.498  -1.781   0.180  1.00  0.00    -0.024 A 
ATOM     18  C   UNL     1       0.469  -1.859   1.565  1.00  0.00     0.026 A 
ATOM     19  C   UNL     1      -1.601  -3.186   0.336  1.00  0.00     0.006 A 
ATOM     20  C   UNL     1       0.365  -3.247   1.693  1.00  0.00     0.002 A 
ATOM     21  C   UNL     1      -0.675  -3.914   1.074  1.00  0.00     0.000 A 
BRANCH  17  22
ATOM     22  C   UNL     1      -2.586  -1.150  -0.660  1.00  0.00     0.042 CG0
ATOM     23  G   UNL     1      -2.188   0.094  -1.437  1.00  0.00     0.000 G0
ENDBRANCH  17  22
ENDBRANCH   7  16
ENDBRANCH   6   7
ENDBRANCH   1   6
TORSDOF 4
