REMARK SMILES CC[C@H]1[C@@H]2C[C@H]3[C@@H]4N(C)c5ccccc5[C@]45C[C@@H]([C@H]2[C@H]5O)[N@@+]3(CC(O)CN(CC)CC)[C@@H]1O
REMARK SMILES IDX 24 1 23 2 22 3 3 4 4 5 32 6 5 7 19 8 6 9 18 10 20 11 7 12
REMARK SMILES IDX 17 13 16 14 8 15 15 16 10 17 14 18 11 19 13 20 12 21 9 22
REMARK SMILES IDX 2 23 1 24 33 25 21 27 25 29 26 31 27 32 28 33 29 34 30 35
REMARK SMILES IDX 31 36
REMARK H PARENT 33 26 21 28 25 30
ROOT
ATOM      1  C   UNL     1      -1.725  -1.210   0.180  1.00  0.00     0.183 C 
ENDROOT
BRANCH   1   2
ATOM      2  C   UNL     1      -0.611  -0.426   0.928  1.00  0.00     0.300 C 
BRANCH   2   3
ATOM      3  N   UNL     1       0.091   0.743   0.151  1.00  0.00    -0.289 N 
ATOM      4  C   UNL     1      -0.277   3.055  -0.833  1.00  0.00     0.081 C 
ATOM      5  C   UNL     1       1.191   2.702  -1.163  1.00  0.00     0.018 C 
ATOM      6  C   UNL     1      -0.963   1.787  -0.247  1.00  0.00     0.325 C 
ATOM      7  C   UNL     1       1.141   1.425  -2.018  1.00  0.00     0.072 C 
ATOM      8  C   UNL     1       1.967   2.437   0.143  1.00  0.00     0.081 C 
ATOM      9  C   UNL     1       0.860   0.202  -1.109  1.00  0.00     0.212 C 
ATOM     10  C   UNL     1       1.141   1.476   1.059  1.00  0.00     0.195 C 
ATOM     11  C   UNL     1       3.338   1.718  -0.060  1.00  0.00     0.137 C 
ATOM     12  C   UNL     1       2.222  -0.473  -0.751  1.00  0.00     0.153 C 
ATOM     13  C   UNL     1       2.168   0.511   1.610  1.00  0.00     0.082 C 
ATOM     14  C   UNL     1       3.023   0.276   0.362  1.00  0.00     0.056 C 
ATOM     15  N   UNL     1       2.154  -1.875  -0.279  1.00  0.00    -0.364 N 
ATOM     16  C   UNL     1       4.037  -0.779   0.637  1.00  0.00    -0.013 A 
ATOM     17  C   UNL     1       3.467  -2.026   0.285  1.00  0.00     0.041 A 
ATOM     18  C   UNL     1       5.301  -0.689   1.194  1.00  0.00     0.006 A 
ATOM     19  C   UNL     1       4.166  -3.196   0.522  1.00  0.00     0.026 A 
ATOM     20  C   UNL     1       6.011  -1.870   1.406  1.00  0.00     0.000 A 
ATOM     21  C   UNL     1       5.446  -3.113   1.075  1.00  0.00     0.002 A 
ATOM     22  C   UNL     1       1.766  -2.928  -1.215  1.00  0.00     0.144 C 
BRANCH   4  23
ATOM     23  C   UNL     1      -0.469   4.281   0.086  1.00  0.00     0.009 C 
ATOM     24  C   UNL     1       0.149   5.559  -0.467  1.00  0.00     0.004 C 
ENDBRANCH   4  23
BRANCH   6  25
ATOM     25  O   UNL     1      -1.868   1.283  -1.208  1.00  0.00    -0.344 OA
ATOM     26  H   UNL     1      -2.523   1.981  -1.399  1.00  0.00     0.217 HD
ENDBRANCH   6  25
BRANCH  11  27
ATOM     27  O   UNL     1       4.245   2.335   0.850  1.00  0.00    -0.392 OA
ATOM     28  H   UNL     1       4.969   2.752   0.335  1.00  0.00     0.211 HD
ENDBRANCH  11  27
ENDBRANCH   2   3
ENDBRANCH   1   2
BRANCH   1  29
ATOM     29  O   UNL     1      -1.519  -2.615   0.421  1.00  0.00    -0.386 OA
ATOM     30  H   UNL     1      -2.371  -3.057   0.221  1.00  0.00     0.211 HD
ENDBRANCH   1  29
BRANCH   1  31
ATOM     31  C   UNL     1      -3.152  -0.852   0.677  1.00  0.00     0.122 C 
BRANCH  31  32
ATOM     32  N   UNL     1      -4.182  -1.784   0.152  1.00  0.00    -0.301 NA
BRANCH  32  33
ATOM     33  C   UNL     1      -5.436  -1.676   0.933  1.00  0.00     0.081 C 
ATOM     34  C   UNL     1      -5.358  -2.383   2.284  1.00  0.00     0.021 C 
ENDBRANCH  32  33
BRANCH  32  35
ATOM     35  C   UNL     1      -4.452  -1.532  -1.282  1.00  0.00     0.081 C 
ATOM     36  C   UNL     1      -5.087  -2.746  -1.956  1.00  0.00     0.021 C 
ENDBRANCH  32  35
ENDBRANCH  31  32
ENDBRANCH   1  31
TORSDOF 10
