REMARK SMILES CC(=O)OCC(=O)[C@@]1(OC(=O)c2ccco2)[C@H](C)C[C@H]2[C@@H]3CCC4=CC(=O)C=C[C@]4(C)[C@@]3(F)[C@@H](O)C[C@@]21C
REMARK SMILES IDX 6 1 7 2 8 3 17 4 19 5 20 6 37 7 21 8 36 9 22 10 32 11 34 12
REMARK SMILES IDX 23 13 30 14 24 15 29 16 25 17 28 18 26 19 27 20 18 21 38 22
REMARK SMILES IDX 33 23 31 24 9 25 10 26 11 27 12 28 13 29 16 30 14 31 15 32
REMARK SMILES IDX 35 33 5 35 4 36 2 37 3 38 1 39
REMARK H PARENT 35 34
ROOT
ATOM      1  C   UNL     1       3.328  -0.891  -0.061  1.00  0.00     0.214 C 
ATOM      2  O   UNL     1       4.397  -0.431  -0.495  1.00  0.00    -0.291 OA
ENDROOT
BRANCH   1   3
ATOM      3  C   UNL     1       1.974  -0.372  -0.637  1.00  0.00     0.182 C 
ATOM      4  C   UNL     1       1.800  -1.025  -2.068  1.00  0.00     0.039 C 
ATOM      5  C   UNL     1       0.281  -0.988  -2.383  1.00  0.00     0.012 C 
ATOM      6  C   UNL     1      -0.355  -0.285  -1.183  1.00  0.00     0.006 C 
ATOM      7  C   UNL     1       0.560  -0.688   0.009  1.00  0.00     0.021 C 
ATOM      8  C   UNL     1      -1.860  -0.500  -0.934  1.00  0.00     0.035 C 
ATOM      9  C   UNL     1       0.120   0.177   1.212  1.00  0.00     0.047 C 
ATOM     10  C   UNL     1      -2.683  -0.105  -2.178  1.00  0.00     0.012 C 
ATOM     11  C   UNL     1      -2.303   0.325   0.320  1.00  0.00     0.152 C 
ATOM     12  C   UNL     1      -1.383   0.063   1.552  1.00  0.00     0.154 C 
ATOM     13  C   UNL     1      -4.184  -0.230  -1.931  1.00  0.00     0.032 C 
ATOM     14  C   UNL     1      -3.857   0.207   0.594  1.00  0.00     0.044 C 
ATOM     15  C   UNL     1      -4.589   0.561  -0.712  1.00  0.00    -0.053 C 
ATOM     16  C   UNL     1      -4.287   1.145   1.723  1.00  0.00    -0.009 C 
ATOM     17  C   UNL     1      -5.509   1.539  -0.816  1.00  0.00     0.052 C 
ATOM     18  C   UNL     1      -5.194   2.126   1.616  1.00  0.00     0.048 C 
ATOM     19  C   UNL     1      -5.885   2.385   0.337  1.00  0.00     0.178 C 
ATOM     20  O   UNL     1      -6.735   3.259   0.238  1.00  0.00    -0.290 OA
ATOM     21  C   UNL     1       2.594  -0.362  -3.192  1.00  0.00     0.012 C 
ATOM     22  C   UNL     1       0.378  -2.193   0.354  1.00  0.00     0.016 C 
ATOM     23  F   UNL     1      -2.067   1.651  -0.009  1.00  0.00    -0.239 F 
ATOM     24  C   UNL     1      -4.312  -1.207   1.024  1.00  0.00     0.024 C 
BRANCH   3  25
ATOM     25  O   UNL     1       2.112   1.061  -0.874  1.00  0.00    -0.444 OA
BRANCH  25  26
ATOM     26  C   UNL     1       2.578   1.862   0.130  1.00  0.00     0.375 C 
ATOM     27  O   UNL     1       2.832   1.462   1.260  1.00  0.00    -0.242 OA
BRANCH  26  28
ATOM     28  C   UNL     1       2.634   3.227  -0.335  1.00  0.00     0.211 A 
ATOM     29  C   UNL     1       2.425   3.801  -1.577  1.00  0.00     0.058 A 
ATOM     30  O   UNL     1       2.929   4.216   0.569  1.00  0.00    -0.457 OA
ATOM     31  C   UNL     1       2.603   5.198  -1.422  1.00  0.00     0.043 A 
ATOM     32  C   UNL     1       2.904   5.397  -0.096  1.00  0.00     0.196 A 
ENDBRANCH  26  28
ENDBRANCH  25  26
ENDBRANCH   3  25
BRANCH  12  33
ATOM     33  O   UNL     1      -1.628  -1.188   2.189  1.00  0.00    -0.390 OA
ATOM     34  H   UNL     1      -1.135  -1.177   3.032  1.00  0.00     0.211 HD
ENDBRANCH  12  33
ENDBRANCH   1   3
BRANCH   1  35
ATOM     35  C   UNL     1       3.333  -1.967   1.011  1.00  0.00     0.312 C 
BRANCH  35  36
ATOM     36  O   UNL     1       4.664  -2.305   1.421  1.00  0.00    -0.458 OA
BRANCH  36  37
ATOM     37  C   UNL     1       4.735  -3.459   2.136  1.00  0.00     0.303 C 
ATOM     38  O   UNL     1       3.775  -4.153   2.443  1.00  0.00    -0.253 OA
ATOM     39  C   UNL     1       6.151  -3.756   2.522  1.00  0.00     0.139 C 
ENDBRANCH  36  37
ENDBRANCH  35  36
ENDBRANCH   1  35
TORSDOF 8
