REMARK SMILES CN(C)CC[C@@H](c1ccc(Cl)cc1)c1ccccn1
REMARK SMILES IDX 5 1 4 2 2 3 1 4 3 5 6 6 7 7 8 8 13 9 9 10 12 11 10 12 11 13
REMARK SMILES IDX 14 14 15 15 19 16 16 17 18 18 17 19
REMARK H PARENT
ROOT
ATOM      1  C   UNL     1       0.781  -0.821  -0.115  1.00  0.00     0.030 C 
ENDROOT
BRANCH   1   2
ATOM      2  C   UNL     1       1.965  -0.110  -0.796  1.00  0.00     0.085 C 
BRANCH   2   3
ATOM      3  N   UNL     1       3.246  -0.803  -0.558  1.00  0.00    -0.309 NA
ATOM      4  C   UNL     1       4.271  -0.272  -1.463  1.00  0.00     0.104 C 
ATOM      5  C   UNL     1       3.698  -0.658   0.828  1.00  0.00     0.104 C 
ENDBRANCH   2   3
ENDBRANCH   1   2
BRANCH   1   6
ATOM      6  C   UNL     1      -0.582  -0.206  -0.514  1.00  0.00     0.069 C 
BRANCH   6   7
ATOM      7  C   UNL     1      -1.806  -1.039  -0.122  1.00  0.00    -0.039 A 
ATOM      8  C   UNL     1      -1.780  -2.017   0.884  1.00  0.00     0.006 A 
ATOM      9  C   UNL     1      -3.023  -0.798  -0.788  1.00  0.00     0.006 A 
ATOM     10  C   UNL     1      -2.933  -2.738   1.209  1.00  0.00     0.021 A 
ATOM     11  C   UNL     1      -4.176  -1.518  -0.463  1.00  0.00     0.021 A 
ATOM     12  C   UNL     1      -4.125  -2.486   0.535  1.00  0.00     0.041 A 
ATOM     13  Cl  UNL     1      -5.542  -3.373   0.940  1.00  0.00    -0.084 Cl
ENDBRANCH   6   7
BRANCH   6  14
ATOM     14  C   UNL     1      -0.692   1.237  -0.031  1.00  0.00     0.048 A 
ATOM     15  C   UNL     1      -0.873   1.543   1.319  1.00  0.00     0.024 A 
ATOM     16  N   UNL     1      -0.574   2.203  -0.979  1.00  0.00    -0.261 NA
ATOM     17  C   UNL     1      -0.947   2.879   1.705  1.00  0.00     0.003 A 
ATOM     18  C   UNL     1      -0.652   3.490  -0.574  1.00  0.00     0.111 A 
ATOM     19  C   UNL     1      -0.836   3.874   0.743  1.00  0.00     0.020 A 
ENDBRANCH   6  14
ENDBRANCH   1   6
TORSDOF 5
