REMARK SMILES CCN[C@@H](C)Cc1cccc(C(F)(F)F)c1
REMARK SMILES IDX 4 1 5 2 3 3 2 5 1 6 6 7 7 8 16 9 8 10 11 11 9 12 10 13 12 14
REMARK SMILES IDX 13 15 14 16 15 17
REMARK H PARENT 3 4
ROOT
ATOM      1  C   UNL     1      -1.492   0.417  -0.597  1.00  0.00     0.054 C 
ATOM      2  C   UNL     1      -1.312   1.071   0.777  1.00  0.00     0.024 C 
ENDROOT
BRANCH   1   3
ATOM      3  N   UNL     1      -1.915  -0.993  -0.520  1.00  0.00    -0.314 NA
ATOM      4  H   UNL     1      -1.999  -1.368  -1.464  1.00  0.00     0.122 HD
BRANCH   3   5
ATOM      5  C   UNL     1      -3.157  -1.249   0.207  1.00  0.00     0.078 C 
ATOM      6  C   UNL     1      -4.393  -0.659  -0.457  1.00  0.00     0.020 C 
ENDBRANCH   3   5
ENDBRANCH   1   3
BRANCH   1   7
ATOM      7  C   UNL     1      -0.208   0.559  -1.461  1.00  0.00     0.054 C 
BRANCH   7   8
ATOM      8  C   UNL     1       1.082   0.059  -0.849  1.00  0.00    -0.046 A 
ATOM      9  C   UNL     1       2.041   0.967  -0.373  1.00  0.00     0.016 A 
ATOM     10  C   UNL     1       1.347  -1.312  -0.751  1.00  0.00     0.004 A 
ATOM     11  C   UNL     1       3.243   0.519   0.202  1.00  0.00     0.056 A 
ATOM     12  C   UNL     1       2.540  -1.769  -0.191  1.00  0.00     0.001 A 
ATOM     13  C   UNL     1       3.485  -0.859   0.280  1.00  0.00     0.013 A 
BRANCH  11  14
ATOM     14  C   UNL     1       4.270   1.509   0.691  1.00  0.00     0.416 C 
ATOM     15  F   UNL     1       5.130   1.893  -0.293  1.00  0.00    -0.166 F 
ATOM     16  F   UNL     1       5.049   1.023   1.698  1.00  0.00    -0.166 F 
ATOM     17  F   UNL     1       3.719   2.658   1.173  1.00  0.00    -0.166 F 
ENDBRANCH  11  14
ENDBRANCH   7   8
ENDBRANCH   1   7
TORSDOF 5
