REMARK SMILES CCCCCN(CCCOC)C(=O)[C@@H](CCC(=O)O)NC(=O)c1ccc(Cl)c(Cl)c1
REMARK SMILES IDX 12 1 13 2 6 3 5 4 4 5 3 6 2 7 1 8 7 9 8 10 9 11 10 12 11 13
REMARK SMILES IDX 14 14 15 15 16 16 17 17 18 18 19 19 20 21 21 22 22 23 23 25
REMARK SMILES IDX 30 26 24 27 28 28 25 29 26 30 29 31 27 32
REMARK H PARENT 19 20 20 24
ROOT
ATOM      1  C   UNL     1       0.256   0.544   0.170  1.00  0.00     0.245 C 
ATOM      2  O   UNL     1       0.751   1.679   0.218  1.00  0.00    -0.272 OA
ENDROOT
BRANCH   1   3
ATOM      3  N   UNL     1      -1.045   0.306   0.610  1.00  0.00    -0.341 N 
BRANCH   3   4
ATOM      4  C   UNL     1      -1.697  -1.010   0.673  1.00  0.00     0.119 C 
BRANCH   4   5
ATOM      5  C   UNL     1      -2.959  -1.090  -0.190  1.00  0.00     0.021 C 
BRANCH   5   6
ATOM      6  C   UNL     1      -3.511  -2.512  -0.324  1.00  0.00     0.002 C 
BRANCH   6   7
ATOM      7  C   UNL     1      -3.995  -3.099   1.003  1.00  0.00    -0.003 C 
ATOM      8  C   UNL     1      -4.627  -4.468   0.806  1.00  0.00     0.004 C 
ENDBRANCH   6   7
ENDBRANCH   5   6
ENDBRANCH   4   5
ENDBRANCH   3   4
BRANCH   3   9
ATOM      9  C   UNL     1      -1.778   1.443   1.176  1.00  0.00     0.122 C 
BRANCH   9  10
ATOM     10  C   UNL     1      -2.394   2.336   0.101  1.00  0.00     0.050 C 
BRANCH  10  11
ATOM     11  C   UNL     1      -3.081   3.547   0.718  1.00  0.00     0.161 C 
BRANCH  11  12
ATOM     12  O   UNL     1      -3.702   4.293  -0.328  1.00  0.00    -0.385 OA
ATOM     13  C   UNL     1      -4.332   5.467   0.167  1.00  0.00     0.194 C 
ENDBRANCH  11  12
ENDBRANCH  10  11
ENDBRANCH   9  10
ENDBRANCH   3   9
ENDBRANCH   1   3
BRANCH   1  14
ATOM     14  C   UNL     1       1.074  -0.609  -0.464  1.00  0.00     0.172 C 
BRANCH  14  15
ATOM     15  C   UNL     1       0.632  -0.821  -1.917  1.00  0.00     0.047 C 
BRANCH  15  16
ATOM     16  C   UNL     1       1.382  -1.960  -2.610  1.00  0.00     0.125 C 
BRANCH  16  17
ATOM     17  C   UNL     1       2.768  -1.580  -3.056  1.00  0.00     0.303 C 
ATOM     18  O   UNL     1       3.805  -2.154  -2.769  1.00  0.00    -0.252 OA
BRANCH  17  19
ATOM     19  O   UNL     1       2.782  -0.529  -3.897  1.00  0.00    -0.481 OA
ATOM     20  H   UNL     1       3.722  -0.445  -4.162  1.00  0.00     0.296 HD
ENDBRANCH  17  19
ENDBRANCH  16  17
ENDBRANCH  15  16
ENDBRANCH  14  15
BRANCH  14  21
ATOM     21  N   UNL     1       2.483  -0.217  -0.401  1.00  0.00    -0.340 N 
ATOM     22  C   UNL     1       3.270  -0.641   0.651  1.00  0.00     0.251 C 
ATOM     23  O   UNL     1       2.904  -1.459   1.486  1.00  0.00    -0.269 OA
ATOM     24  H   UNL     1       2.664   0.725  -0.736  1.00  0.00     0.164 HD
BRANCH  22  25
ATOM     25  C   UNL     1       4.617  -0.017   0.755  1.00  0.00     0.041 A 
ATOM     26  C   UNL     1       5.291   0.465  -0.373  1.00  0.00     0.036 A 
ATOM     27  C   UNL     1       5.228   0.053   2.013  1.00  0.00     0.015 A 
ATOM     28  C   UNL     1       6.560   1.036  -0.238  1.00  0.00     0.060 A 
ATOM     29  C   UNL     1       6.495   0.626   2.147  1.00  0.00     0.023 A 
ATOM     30  C   UNL     1       7.163   1.121   1.023  1.00  0.00     0.059 A 
ATOM     31  Cl  UNL     1       7.332   1.615  -1.673  1.00  0.00    -0.083 Cl
ATOM     32  Cl  UNL     1       8.726   1.818   1.259  1.00  0.00    -0.083 Cl
ENDBRANCH  22  25
ENDBRANCH  14  21
ENDBRANCH   1  14
TORSDOF 16
