REMARK SMILES C[C@H](CN1CCOCC1)C(C(=O)N1CCCC1)(c1ccccc1)c1ccccc1
REMARK SMILES IDX 1 1 2 2 3 3 4 4 5 5 9 6 6 7 8 8 7 9 10 10 11 11 12 12 13 13
REMARK SMILES IDX 14 14 17 15 15 16 16 17 18 18 19 19 23 20 20 21 22 22 21 23
REMARK SMILES IDX 24 24 25 25 29 26 26 27 28 28 27 29
REMARK H PARENT
ROOT
ATOM      1  C   UNL     1       1.665  -1.794  -0.668  1.00  0.00     0.011 C 
ATOM      2  C   UNL     1       0.773  -0.588  -0.288  1.00  0.00     0.024 C 
ENDROOT
BRANCH   2   3
ATOM      3  C   UNL     1       1.482   0.194   0.864  1.00  0.00     0.089 C 
BRANCH   3   4
ATOM      4  N   UNL     1       2.790   0.749   0.464  1.00  0.00    -0.298 NA
ATOM      5  C   UNL     1       2.676   1.979  -0.350  1.00  0.00     0.113 C 
ATOM      6  C   UNL     1       3.631   0.999   1.658  1.00  0.00     0.113 C 
ATOM      7  C   UNL     1       2.936   3.271   0.441  1.00  0.00     0.175 C 
ATOM      8  C   UNL     1       4.746   2.013   1.368  1.00  0.00     0.175 C 
ATOM      9  O   UNL     1       4.239   3.314   1.037  1.00  0.00    -0.379 OA
ENDBRANCH   3   4
ENDBRANCH   2   3
BRANCH   2  10
ATOM     10  C   UNL     1      -0.747  -0.966   0.042  1.00  0.00     0.103 C 
BRANCH  10  11
ATOM     11  C   UNL     1      -1.474   0.335   0.650  1.00  0.00     0.238 C 
ATOM     12  O   UNL     1      -2.017   0.319   1.762  1.00  0.00    -0.273 OA
ATOM     13  N   UNL     1      -1.468   1.540  -0.046  1.00  0.00    -0.342 N 
ATOM     14  C   UNL     1      -1.946   2.741   0.622  1.00  0.00     0.119 C 
ATOM     15  C   UNL     1      -1.410   1.760  -1.487  1.00  0.00     0.119 C 
ATOM     16  C   UNL     1      -1.634   3.859  -0.356  1.00  0.00     0.023 C 
ATOM     17  C   UNL     1      -1.899   3.192  -1.697  1.00  0.00     0.023 C 
ENDBRANCH  10  11
BRANCH  10  18
ATOM     18  C   UNL     1      -0.712  -2.161   1.079  1.00  0.00    -0.028 A 
ATOM     19  C   UNL     1      -0.514  -1.959   2.459  1.00  0.00     0.005 A 
ATOM     20  C   UNL     1      -0.796  -3.503   0.644  1.00  0.00     0.005 A 
ATOM     21  C   UNL     1      -0.442  -3.030   3.356  1.00  0.00     0.000 A 
ATOM     22  C   UNL     1      -0.724  -4.574   1.540  1.00  0.00     0.000 A 
ATOM     23  C   UNL     1      -0.550  -4.337   2.897  1.00  0.00     0.000 A 
ENDBRANCH  10  18
BRANCH  10  24
ATOM     24  C   UNL     1      -1.614  -1.381  -1.195  1.00  0.00    -0.028 A 
ATOM     25  C   UNL     1      -2.985  -1.663  -0.995  1.00  0.00     0.005 A 
ATOM     26  C   UNL     1      -1.117  -1.485  -2.506  1.00  0.00     0.005 A 
ATOM     27  C   UNL     1      -3.814  -2.036  -2.055  1.00  0.00     0.000 A 
ATOM     28  C   UNL     1      -1.950  -1.860  -3.566  1.00  0.00     0.000 A 
ATOM     29  C   UNL     1      -3.295  -2.135  -3.341  1.00  0.00     0.000 A 
ENDBRANCH  10  24
ENDBRANCH   2  10
TORSDOF 6
