REMARK SMILES CC(=O)Oc1ccc2c3c1O[C@H]1[C@@H](OC(C)=O)C=C[C@H]4[C@@H](C2)N(C)CC[C@@]341
REMARK SMILES IDX 24 1 23 2 25 3 26 4 27 5 12 6 11 7 10 8 5 9 6 10 7 11 8 12
REMARK SMILES IDX 22 13 21 14 20 15 19 16 18 17 13 18 9 19 14 20 15 21 17 22
REMARK SMILES IDX 16 23 4 24 2 25 3 26 1 27
REMARK H PARENT
ROOT
ATOM      1  C   UNL     1      -0.668  -4.358   1.426  1.00  0.00     0.105 C 
ATOM      2  N   UNL     1      -1.665  -3.370   1.047  1.00  0.00    -0.302 NA
ATOM      3  C   UNL     1      -1.960  -2.430   2.129  1.00  0.00     0.085 C 
ATOM      4  C   UNL     1      -1.199  -1.101   2.068  1.00  0.00     0.032 C 
ATOM      5  C   UNL     1      -1.138  -0.515   0.636  1.00  0.00     0.049 C 
ATOM      6  C   UNL     1      -1.185   1.030   0.612  1.00  0.00     0.229 C 
ATOM      7  O   UNL     1       0.185   1.510   0.869  1.00  0.00    -0.481 OA
ATOM      8  C   UNL     1       0.977   0.508   0.378  1.00  0.00     0.166 A 
ATOM      9  C   UNL     1       2.318   0.578   0.068  1.00  0.00     0.173 A 
ATOM     10  C   UNL     1       2.925  -0.511  -0.564  1.00  0.00     0.051 A 
ATOM     11  C   UNL     1       2.171  -1.661  -0.874  1.00  0.00     0.008 A 
ATOM     12  C   UNL     1       0.818  -1.734  -0.525  1.00  0.00    -0.039 A 
ATOM     13  C   UNL     1      -0.102  -2.840  -0.963  1.00  0.00     0.055 C 
ATOM     14  C   UNL     1      -1.530  -2.769  -0.310  1.00  0.00     0.068 C 
ATOM     15  C   UNL     1      -2.067  -1.289  -0.313  1.00  0.00     0.044 C 
ATOM     16  C   UNL     1      -2.173  -0.639  -1.671  1.00  0.00    -0.021 C 
ATOM     17  C   UNL     1      -2.025   0.684  -1.833  1.00  0.00     0.017 C 
ATOM     18  C   UNL     1      -1.775   1.650  -0.699  1.00  0.00     0.241 C 
ATOM     19  C   UNL     1       0.272  -0.651   0.143  1.00  0.00     0.012 A 
ENDROOT
BRANCH  18  20
ATOM     20  O   UNL     1      -0.941   2.699  -1.222  1.00  0.00    -0.454 OA
BRANCH  20  21
ATOM     21  C   UNL     1      -0.990   3.868  -0.528  1.00  0.00     0.303 C 
ATOM     22  O   UNL     1      -1.732   4.105   0.414  1.00  0.00    -0.253 OA
ATOM     23  C   UNL     1       0.004   4.837  -1.091  1.00  0.00     0.139 C 
ENDBRANCH  20  21
ENDBRANCH  18  20
BRANCH   9  24
ATOM     24  O   UNL     1       3.039   1.744   0.281  1.00  0.00    -0.423 OA
BRANCH  24  25
ATOM     25  C   UNL     1       3.412   1.891   1.611  1.00  0.00     0.308 C 
ATOM     26  O   UNL     1       3.297   1.069   2.512  1.00  0.00    -0.252 OA
ATOM     27  C   UNL     1       4.041   3.242   1.784  1.00  0.00     0.139 C 
ENDBRANCH  24  25
ENDBRANCH   9  24
TORSDOF 4
