REMARK SMILES CCC(=O)N(CC(C)N(C)CCc1ccccc1)c1ccccc1
REMARK SMILES IDX 6 1 5 2 3 3 4 4 2 5 1 6 19 7 20 8 24 9 21 10 23 11 22 12
REMARK SMILES IDX 7 13 8 14 9 15 10 16 11 17 12 18 13 19 14 20 18 21 15 22
REMARK SMILES IDX 17 23 16 24
REMARK H PARENT
ROOT
ATOM      1  C   UNL     1      -0.667  -1.220  -0.627  1.00  0.00     0.144 C 
ENDROOT
BRANCH   1   2
ATOM      2  N   UNL     1      -1.955  -0.512  -0.437  1.00  0.00    -0.311 N 
BRANCH   2   3
ATOM      3  C   UNL     1      -3.103  -1.212  -0.014  1.00  0.00     0.226 C 
ATOM      4  O   UNL     1      -4.033  -0.710   0.619  1.00  0.00    -0.275 OA
BRANCH   3   5
ATOM      5  C   UNL     1      -3.164  -2.693  -0.383  1.00  0.00     0.097 C 
ATOM      6  C   UNL     1      -4.537  -3.299  -0.133  1.00  0.00     0.014 C 
ENDBRANCH   3   5
ENDBRANCH   2   3
BRANCH   2   7
ATOM      7  C   UNL     1      -1.967   0.935  -0.591  1.00  0.00     0.044 A 
ATOM      8  C   UNL     1      -3.168   1.665  -0.621  1.00  0.00     0.026 A 
ATOM      9  C   UNL     1      -0.784   1.673  -0.781  1.00  0.00     0.026 A 
ATOM     10  C   UNL     1      -3.187   3.056  -0.794  1.00  0.00     0.002 A 
ATOM     11  C   UNL     1      -0.799   3.063  -0.956  1.00  0.00     0.002 A 
ATOM     12  C   UNL     1      -2.001   3.757  -0.958  1.00  0.00     0.000 A 
ENDBRANCH   2   7
ENDBRANCH   1   2
BRANCH   1  13
ATOM     13  C   UNL     1       0.255  -1.215   0.638  1.00  0.00     0.073 C 
ATOM     14  C   UNL     1      -0.307  -2.102   1.758  1.00  0.00     0.026 C 
BRANCH  13  15
ATOM     15  N   UNL     1       1.659  -1.532   0.265  1.00  0.00    -0.302 NA
ATOM     16  C   UNL     1       1.856  -2.905  -0.205  1.00  0.00     0.105 C 
BRANCH  15  17
ATOM     17  C   UNL     1       2.660  -1.213   1.305  1.00  0.00     0.089 C 
BRANCH  17  18
ATOM     18  C   UNL     1       2.708   0.244   1.816  1.00  0.00     0.051 C 
BRANCH  18  19
ATOM     19  C   UNL     1       2.940   1.356   0.816  1.00  0.00    -0.047 A 
ATOM     20  C   UNL     1       2.689   2.678   1.220  1.00  0.00     0.004 A 
ATOM     21  C   UNL     1       3.442   1.142  -0.474  1.00  0.00     0.004 A 
ATOM     22  C   UNL     1       2.918   3.751   0.356  1.00  0.00     0.000 A 
ATOM     23  C   UNL     1       3.667   2.214  -1.341  1.00  0.00     0.000 A 
ATOM     24  C   UNL     1       3.406   3.518  -0.927  1.00  0.00     0.000 A 
ENDBRANCH  18  19
ENDBRANCH  17  18
ENDBRANCH  15  17
ENDBRANCH  13  15
ENDBRANCH   1  13
TORSDOF 9
