REMARK SMILES CC(C)(C)c1ccc2c(S(=O)(=O)O)c(C(C)(C)C)ccc2c1
REMARK SMILES IDX 5 1 6 2 7 3 8 4 21 5 20 6 19 7 14 8 9 9 22 10 2 11 1 12 3 13
REMARK SMILES IDX 4 14 10 15 11 16 12 17 13 18 15 20 16 21 17 22 18 23
REMARK H PARENT 13 19
ROOT
ATOM      1  C   UNL     1       2.749   0.523  -0.097  1.00  0.00    -0.042 A 
ATOM      2  C   UNL     1       2.381  -0.646  -0.769  1.00  0.00     0.005 A 
ATOM      3  C   UNL     1       1.037  -1.025  -0.894  1.00  0.00     0.010 A 
ATOM      4  C   UNL     1      -0.029  -0.253  -0.366  1.00  0.00     0.003 A 
ATOM      5  C   UNL     1       0.353   0.897   0.353  1.00  0.00    -0.017 A 
ATOM      6  C   UNL     1      -0.624   1.678   0.963  1.00  0.00     0.009 A 
ATOM      7  C   UNL     1      -1.964   1.290   0.954  1.00  0.00     0.006 A 
ATOM      8  C   UNL     1      -2.413   0.121   0.305  1.00  0.00    -0.021 A 
ATOM      9  C   UNL     1      -1.435  -0.559  -0.475  1.00  0.00     0.105 A 
ATOM     10  C   UNL     1       1.708   1.276   0.464  1.00  0.00     0.013 A 
ENDROOT
BRANCH   1  11
ATOM     11  C   UNL     1       4.230   0.920   0.020  1.00  0.00    -0.013 C 
ATOM     12  C   UNL     1       4.465   2.251   0.769  1.00  0.00     0.016 C 
ATOM     13  C   UNL     1       5.001  -0.178   0.783  1.00  0.00     0.016 C 
ATOM     14  C   UNL     1       4.838   1.079  -1.391  1.00  0.00     0.016 C 
ENDBRANCH   1  11
BRANCH   9  15
ATOM     15  S   UNL     1      -1.914  -1.649  -1.819  1.00  0.00     0.295 S 
ATOM     16  O   UNL     1      -3.128  -1.144  -2.422  1.00  0.00    -0.194 OA
ATOM     17  O   UNL     1      -1.784  -3.012  -1.356  1.00  0.00    -0.194 OA
BRANCH  15  18
ATOM     18  O   UNL     1      -0.835  -1.425  -2.998  1.00  0.00    -0.282 OA
ATOM     19  H   UNL     1      -1.296  -0.952  -3.723  1.00  0.00     0.234 HD
ENDBRANCH  15  18
ENDBRANCH   9  15
BRANCH   8  20
ATOM     20  C   UNL     1      -3.885  -0.310   0.577  1.00  0.00    -0.012 C 
ATOM     21  C   UNL     1      -4.265  -0.036   2.070  1.00  0.00     0.016 C 
ATOM     22  C   UNL     1      -4.850   0.521  -0.291  1.00  0.00     0.016 C 
ATOM     23  C   UNL     1      -4.181  -1.818   0.409  1.00  0.00     0.016 C 
ENDBRANCH   8  20
TORSDOF 4
