REMARK SMILES Oc1ccc(Cl)cc1Cc1cc(Cl)ccc1O
REMARK SMILES IDX 9 1 8 2 2 3 3 4 7 5 4 6 5 7 6 8 1 9 10 11 16 12 11 13 15 14
REMARK SMILES IDX 12 15 14 16 13 17 17 18
REMARK H PARENT 1 10 17 19
ROOT
ATOM      1  C   UNL     1       0.039  -0.022   1.395  1.00  0.00     0.079 C 
ENDROOT
BRANCH   1   2
ATOM      2  C   UNL     1       1.304   0.132   0.581  1.00  0.00    -0.000 A 
ATOM      3  C   UNL     1       1.958  -0.949  -0.025  1.00  0.00     0.119 A 
ATOM      4  C   UNL     1       3.141  -0.768  -0.742  1.00  0.00     0.048 A 
ATOM      5  C   UNL     1       1.860   1.415   0.420  1.00  0.00     0.028 A 
ATOM      6  C   UNL     1       3.683   0.508  -0.887  1.00  0.00     0.024 A 
ATOM      7  C   UNL     1       3.037   1.595  -0.309  1.00  0.00     0.041 A 
ATOM      8  Cl  UNL     1       3.696   3.175  -0.486  1.00  0.00    -0.084 Cl
BRANCH   3   9
ATOM      9  O   UNL     1       1.499  -2.233   0.048  1.00  0.00    -0.508 OA
ATOM     10  H   UNL     1       0.548  -2.219   0.277  1.00  0.00     0.293 HD
ENDBRANCH   3   9
ENDBRANCH   1   2
BRANCH   1  11
ATOM     11  C   UNL     1      -1.226   0.017   0.569  1.00  0.00    -0.000 A 
ATOM     12  C   UNL     1      -1.821  -1.149   0.068  1.00  0.00     0.119 A 
ATOM     13  C   UNL     1      -1.824   1.252   0.268  1.00  0.00     0.028 A 
ATOM     14  C   UNL     1      -2.984  -1.097  -0.702  1.00  0.00     0.048 A 
ATOM     15  C   UNL     1      -2.986   1.306  -0.501  1.00  0.00     0.041 A 
ATOM     16  C   UNL     1      -3.569   0.138  -0.986  1.00  0.00     0.024 A 
ATOM     17  Cl  UNL     1      -3.707   2.828  -0.854  1.00  0.00    -0.084 Cl
BRANCH  12  18
ATOM     18  O   UNL     1      -1.234  -2.355   0.338  1.00  0.00    -0.508 OA
ATOM     19  H   UNL     1      -1.811  -3.061  -0.008  1.00  0.00     0.293 HD
ENDBRANCH  12  18
ENDBRANCH   1  11
TORSDOF 4
