REMARK SMILES CCN(CC)CCN1c2ccccc2Sc2ccccc21
REMARK SMILES IDX 3 1 2 2 1 3 4 4 5 5 6 6 7 7 8 8 9 9 21 10 10 11 14 12 16 13
REMARK SMILES IDX 20 14 11 15 13 16 15 17 17 18 19 19 12 20 18 21
REMARK H PARENT
ROOT
ATOM      1  N   UNL     1       1.851  -0.041  -0.030  1.00  0.00    -0.302 NA
ENDROOT
BRANCH   1   2
ATOM      2  C   UNL     1       2.903  -0.821   0.643  1.00  0.00     0.081 C 
ATOM      3  C   UNL     1       2.927  -2.262   0.148  1.00  0.00     0.021 C 
ENDBRANCH   1   2
BRANCH   1   4
ATOM      4  C   UNL     1       2.377   0.830  -1.096  1.00  0.00     0.081 C 
ATOM      5  C   UNL     1       3.021   0.081  -2.256  1.00  0.00     0.021 C 
ENDBRANCH   1   4
BRANCH   1   6
ATOM      6  C   UNL     1       1.082   0.776   0.942  1.00  0.00     0.106 C 
BRANCH   6   7
ATOM      7  C   UNL     1       0.011  -0.027   1.733  1.00  0.00     0.138 C 
BRANCH   7   8
ATOM      8  N   UNL     1      -1.316  -0.073   1.050  1.00  0.00    -0.338 N 
ATOM      9  C   UNL     1      -1.334  -0.922  -0.093  1.00  0.00     0.055 A 
ATOM     10  C   UNL     1      -2.043   1.148   1.134  1.00  0.00     0.055 A 
ATOM     11  C   UNL     1      -0.982  -2.280   0.035  1.00  0.00     0.027 A 
ATOM     12  C   UNL     1      -1.754  -0.470  -1.358  1.00  0.00     0.036 A 
ATOM     13  C   UNL     1      -2.537   1.808  -0.006  1.00  0.00     0.036 A 
ATOM     14  C   UNL     1      -2.337   1.705   2.395  1.00  0.00     0.027 A 
ATOM     15  C   UNL     1      -1.002  -3.148  -1.059  1.00  0.00     0.002 A 
ATOM     16  C   UNL     1      -1.766  -1.347  -2.455  1.00  0.00     0.017 A 
ATOM     17  S   UNL     1      -2.249   1.215  -1.662  1.00  0.00    -0.086 SA
ATOM     18  C   UNL     1      -3.257   3.007   0.126  1.00  0.00     0.017 A 
ATOM     19  C   UNL     1      -3.058   2.895   2.520  1.00  0.00     0.002 A 
ATOM     20  C   UNL     1      -1.388  -2.680  -2.308  1.00  0.00     0.001 A 
ATOM     21  C   UNL     1      -3.513   3.550   1.384  1.00  0.00     0.001 A 
ENDBRANCH   7   8
ENDBRANCH   6   7
ENDBRANCH   1   6
TORSDOF 5
