REMARK SMILES CCCCCCOC(=O)c1ccccc1C(=O)c1ccc(N(CC)CC)cc1O
REMARK SMILES IDX 8 1 9 2 7 3 6 4 5 5 4 6 3 7 2 8 1 9 10 10 15 11 11 12 14 13
REMARK SMILES IDX 12 14 13 15 16 16 17 17 18 18 28 19 19 20 27 21 20 22 21 23
REMARK SMILES IDX 29 24 22 26 23 27 24 28 25 29 26 30
REMARK H PARENT 29 25
ROOT
ATOM      1  C   UNL     1       2.565   1.826   0.145  1.00  0.00     0.338 C 
ATOM      2  O   UNL     1       3.733   1.986   0.455  1.00  0.00    -0.246 OA
ENDROOT
BRANCH   1   3
ATOM      3  O   UNL     1       1.941   0.653  -0.121  1.00  0.00    -0.462 OA
BRANCH   3   4
ATOM      4  C   UNL     1       2.706  -0.531   0.148  1.00  0.00     0.233 C 
BRANCH   4   5
ATOM      5  C   UNL     1       3.473  -0.939  -1.105  1.00  0.00     0.042 C 
BRANCH   5   6
ATOM      6  C   UNL     1       4.187  -2.285  -0.975  1.00  0.00     0.003 C 
BRANCH   6   7
ATOM      7  C   UNL     1       5.239  -2.372   0.136  1.00  0.00    -0.000 C 
BRANCH   7   8
ATOM      8  C   UNL     1       6.360  -1.330   0.069  1.00  0.00    -0.003 C 
ATOM      9  C   UNL     1       7.176  -1.399  -1.214  1.00  0.00     0.004 C 
ENDBRANCH   7   8
ENDBRANCH   6   7
ENDBRANCH   5   6
ENDBRANCH   4   5
ENDBRANCH   3   4
ENDBRANCH   1   3
BRANCH   1  10
ATOM     10  C   UNL     1       1.635   2.932  -0.158  1.00  0.00     0.071 A 
ATOM     11  C   UNL     1       0.310   2.961   0.296  1.00  0.00     0.037 A 
ATOM     12  C   UNL     1       2.115   3.970  -0.969  1.00  0.00     0.016 A 
ATOM     13  C   UNL     1      -0.538   4.010  -0.088  1.00  0.00     0.013 A 
ATOM     14  C   UNL     1       1.267   5.013  -1.348  1.00  0.00     0.001 A 
ATOM     15  C   UNL     1      -0.058   5.028  -0.914  1.00  0.00     0.001 A 
BRANCH  11  16
ATOM     16  C   UNL     1      -0.199   1.944   1.240  1.00  0.00     0.197 C 
ATOM     17  O   UNL     1       0.451   1.657   2.238  1.00  0.00    -0.288 OA
BRANCH  16  18
ATOM     18  C   UNL     1      -1.474   1.256   0.940  1.00  0.00     0.064 A 
ATOM     19  C   UNL     1      -2.537   1.275   1.836  1.00  0.00     0.128 A 
ATOM     20  C   UNL     1      -1.592   0.533  -0.246  1.00  0.00     0.018 A 
ATOM     21  C   UNL     1      -3.705   0.553   1.558  1.00  0.00     0.072 A 
ATOM     22  C   UNL     1      -2.771  -0.174  -0.516  1.00  0.00     0.027 A 
ATOM     23  C   UNL     1      -3.859  -0.198   0.377  1.00  0.00     0.040 A 
BRANCH  19  24
ATOM     24  O   UNL     1      -2.469   2.044   2.963  1.00  0.00    -0.507 OA
ATOM     25  H   UNL     1      -3.144   1.744   3.595  1.00  0.00     0.293 HD
ENDBRANCH  19  24
BRANCH  23  26
ATOM     26  N   UNL     1      -5.015  -0.925   0.108  1.00  0.00    -0.372 N 
BRANCH  26  27
ATOM     27  C   UNL     1      -5.356  -1.342  -1.259  1.00  0.00     0.113 C 
ATOM     28  C   UNL     1      -4.898  -2.765  -1.541  1.00  0.00     0.027 C 
ENDBRANCH  26  27
BRANCH  26  29
ATOM     29  C   UNL     1      -5.966  -1.308   1.166  1.00  0.00     0.113 C 
ATOM     30  C   UNL     1      -5.372  -2.340   2.116  1.00  0.00     0.027 C 
ENDBRANCH  26  29
ENDBRANCH  23  26
ENDBRANCH  16  18
ENDBRANCH  11  16
ENDBRANCH   1  10
TORSDOF 13
