REMARK SMILES Cc1ccc2c(c1)[C@]13CCCC[C@@H]1[C@H](C2)N(C)CC3
REMARK SMILES IDX 17 1 16 2 18 3 19 4 8 5 9 6 10 7 11 8 12 9 13 10 14 11 15 12
REMARK SMILES IDX 5 13 4 14 3 15 2 16 1 17 7 18 6 19
REMARK H PARENT
ROOT
ATOM      1  C   UNL     1      -3.177  -2.460  -0.532  1.00  0.00     0.105 C 
ATOM      2  N   UNL     1      -2.487  -1.188  -0.724  1.00  0.00    -0.303 NA
ATOM      3  C   UNL     1      -1.438  -1.306  -1.743  1.00  0.00     0.085 C 
ATOM      4  C   UNL     1      -0.745   0.038  -2.005  1.00  0.00     0.027 C 
ATOM      5  C   UNL     1      -0.286   0.743  -0.701  1.00  0.00     0.001 C 
ATOM      6  C   UNL     1       0.165   2.191  -1.042  1.00  0.00     0.012 C 
ATOM      7  C   UNL     1       0.450   3.037   0.200  1.00  0.00     0.001 C 
ATOM      8  C   UNL     1      -0.760   3.090   1.127  1.00  0.00     0.000 C 
ATOM      9  C   UNL     1      -1.249   1.692   1.494  1.00  0.00     0.006 C 
ATOM     10  C   UNL     1      -1.522   0.845   0.235  1.00  0.00     0.017 C 
ATOM     11  C   UNL     1      -2.018  -0.579   0.546  1.00  0.00     0.064 C 
ATOM     12  C   UNL     1      -0.938  -1.362   1.327  1.00  0.00     0.055 C 
ATOM     13  C   UNL     1       0.486  -1.126   0.873  1.00  0.00    -0.043 A 
ATOM     14  C   UNL     1       1.496  -1.922   1.437  1.00  0.00     0.004 A 
ATOM     15  C   UNL     1       2.826  -1.762   1.057  1.00  0.00     0.004 A 
ATOM     16  C   UNL     1       3.170  -0.814   0.094  1.00  0.00    -0.051 A 
ATOM     17  C   UNL     1       4.602  -0.624  -0.310  1.00  0.00     0.044 C 
ATOM     18  C   UNL     1       2.166  -0.002  -0.455  1.00  0.00     0.008 A 
ATOM     19  C   UNL     1       0.819  -0.126  -0.067  1.00  0.00    -0.038 A 
ENDROOT
TORSDOF 0
