REMARK SMILES CCC(O)C(CC(C)N(C)C)(c1ccccc1)c1ccccc1
REMARK SMILES IDX 5 1 3 2 2 3 1 4 4 5 6 7 7 8 8 9 9 10 10 11 11 12 12 13 13 14
REMARK SMILES IDX 17 15 14 16 16 17 15 18 18 19 19 20 23 21 20 22 22 23 21 24
REMARK H PARENT 4 6
ROOT
ATOM      1  C   UNL     1      -0.817   0.187   0.234  1.00  0.00     0.048 C 
ENDROOT
BRANCH   1   2
ATOM      2  C   UNL     1      -2.014  -0.027   1.296  1.00  0.00     0.129 C 
BRANCH   2   3
ATOM      3  C   UNL     1      -2.524  -1.466   1.573  1.00  0.00     0.029 C 
ATOM      4  C   UNL     1      -1.552  -2.402   2.274  1.00  0.00     0.007 C 
ENDBRANCH   2   3
BRANCH   2   5
ATOM      5  O   UNL     1      -1.698   0.544   2.580  1.00  0.00    -0.392 OA
ATOM      6  H   UNL     1      -2.483   0.444   3.146  1.00  0.00     0.211 HD
ENDBRANCH   2   5
ENDBRANCH   1   2
BRANCH   1   7
ATOM      7  C   UNL     1       0.561  -0.013   0.980  1.00  0.00     0.038 C 
BRANCH   7   8
ATOM      8  C   UNL     1       1.876   0.203   0.166  1.00  0.00     0.054 C 
ATOM      9  C   UNL     1       2.491   1.587   0.442  1.00  0.00     0.024 C 
BRANCH   8  10
ATOM     10  N   UNL     1       2.817  -0.917   0.440  1.00  0.00    -0.307 NA
ATOM     11  C   UNL     1       3.418  -0.891   1.773  1.00  0.00     0.105 C 
ATOM     12  C   UNL     1       3.854  -1.035  -0.586  1.00  0.00     0.105 C 
ENDBRANCH   8  10
ENDBRANCH   7   8
ENDBRANCH   1   7
BRANCH   1  13
ATOM     13  C   UNL     1      -1.095  -0.820  -0.926  1.00  0.00    -0.035 A 
ATOM     14  C   UNL     1      -2.239  -0.651  -1.741  1.00  0.00     0.005 A 
ATOM     15  C   UNL     1      -0.280  -1.934  -1.189  1.00  0.00     0.005 A 
ATOM     16  C   UNL     1      -2.536  -1.539  -2.778  1.00  0.00     0.000 A 
ATOM     17  C   UNL     1      -0.578  -2.822  -2.227  1.00  0.00     0.000 A 
ATOM     18  C   UNL     1      -1.703  -2.624  -3.022  1.00  0.00     0.000 A 
ENDBRANCH   1  13
BRANCH   1  19
ATOM     19  C   UNL     1      -0.826   1.666  -0.301  1.00  0.00    -0.035 A 
ATOM     20  C   UNL     1      -0.442   1.971  -1.626  1.00  0.00     0.005 A 
ATOM     21  C   UNL     1      -1.157   2.755   0.527  1.00  0.00     0.005 A 
ATOM     22  C   UNL     1      -0.434   3.284  -2.106  1.00  0.00     0.000 A 
ATOM     23  C   UNL     1      -1.148   4.070   0.048  1.00  0.00     0.000 A 
ATOM     24  C   UNL     1      -0.793   4.333  -1.270  1.00  0.00     0.000 A 
ENDBRANCH   1  19
TORSDOF 8
