REMARK SMILES COc1ccc(/C(C)=C/C(=O)O)c(OC)c1
REMARK SMILES IDX 7 1 8 2 9 3 6 4 3 5 16 6 4 7 13 8 5 9 2 10 1 11 14 12 15 13
REMARK SMILES IDX 10 14 11 15 12 16
REMARK H PARENT 12 17
ROOT
ATOM      1  C   UNL     1       1.611  -0.883  -0.411  1.00  0.00    -0.033 C 
ATOM      2  C   UNL     1       1.853  -2.331  -0.089  1.00  0.00     0.045 C 
ATOM      3  C   UNL     1       2.531  -0.007  -0.857  1.00  0.00     0.097 C 
ENDROOT
BRANCH   1   4
ATOM      4  C   UNL     1       0.220  -0.406  -0.220  1.00  0.00     0.020 A 
ATOM      5  C   UNL     1      -2.456   0.418   0.038  1.00  0.00     0.122 A 
ATOM      6  C   UNL     1      -1.463   0.962   0.862  1.00  0.00     0.093 A 
ATOM      7  C   UNL     1      -2.112  -0.539  -0.912  1.00  0.00     0.047 A 
ATOM      8  C   UNL     1      -0.127   0.559   0.747  1.00  0.00     0.130 A 
ATOM      9  C   UNL     1      -0.782  -0.948  -1.039  1.00  0.00     0.016 A 
BRANCH   5  10
ATOM     10  O   UNL     1      -3.714   0.908   0.266  1.00  0.00    -0.497 OA
ATOM     11  C   UNL     1      -4.764   0.387  -0.541  1.00  0.00     0.278 C 
ENDBRANCH   5  10
BRANCH   8  12
ATOM     12  O   UNL     1       0.896   1.037   1.528  1.00  0.00    -0.496 OA
ATOM     13  C   UNL     1       0.566   1.980   2.539  1.00  0.00     0.278 C 
ENDBRANCH   8  12
ENDBRANCH   1   4
BRANCH   3  14
ATOM     14  C   UNL     1       3.934  -0.342  -1.143  1.00  0.00     0.328 C 
ATOM     15  O   UNL     1       4.464  -1.435  -1.160  1.00  0.00    -0.247 OA
BRANCH  14  16
ATOM     16  O   UNL     1       4.621   0.778  -1.426  1.00  0.00    -0.478 OA
ATOM     17  H   UNL     1       5.528   0.452  -1.597  1.00  0.00     0.297 HD
ENDBRANCH  14  16
ENDBRANCH   3  14
TORSDOF 5
