REMARK SMILES COc1ccc2c(=O)c(C)c(-c3ccccc3)oc2c1CN(C)C
REMARK SMILES IDX 3 1 4 2 5 3 6 4 7 5 8 6 9 7 10 8 11 9 18 10 19 11 20 12 2 13
REMARK SMILES IDX 1 14 21 15 22 16 23 17 24 18 12 19 13 20 17 21 14 22 16 23
REMARK SMILES IDX 15 24
REMARK H PARENT
ROOT
ATOM      1  C   UNL     1      -2.863   1.368  -0.009  1.00  0.00     0.127 A 
ATOM      2  C   UNL     1      -2.702   2.530   0.755  1.00  0.00     0.048 A 
ATOM      3  C   UNL     1      -1.435   2.918   1.196  1.00  0.00     0.020 A 
ATOM      4  C   UNL     1      -0.320   2.147   0.869  1.00  0.00     0.066 A 
ATOM      5  C   UNL     1       1.019   2.536   1.336  1.00  0.00     0.196 C 
ATOM      6  O   UNL     1       1.185   3.562   1.986  1.00  0.00    -0.289 OA
ATOM      7  C   UNL     1       2.149   1.635   0.991  1.00  0.00     0.040 C 
ATOM      8  C   UNL     1       3.475   2.015   1.579  1.00  0.00     0.053 C 
ATOM      9  C   UNL     1       1.876   0.567   0.216  1.00  0.00     0.141 C 
ATOM     10  O   UNL     1       0.619   0.233  -0.255  1.00  0.00    -0.455 OA
ATOM     11  C   UNL     1      -0.462   0.998   0.103  1.00  0.00     0.146 A 
ATOM     12  C   UNL     1      -1.735   0.587  -0.343  1.00  0.00     0.052 A 
ENDROOT
BRANCH   1  13
ATOM     13  O   UNL     1      -4.071   0.914  -0.473  1.00  0.00    -0.496 OA
ATOM     14  C   UNL     1      -5.235   1.649  -0.118  1.00  0.00     0.278 C 
ENDBRANCH   1  13
BRANCH  12  15
ATOM     15  C   UNL     1      -1.872  -0.691  -1.154  1.00  0.00     0.127 C 
BRANCH  15  16
ATOM     16  N   UNL     1      -1.682  -1.915  -0.348  1.00  0.00    -0.305 NA
ATOM     17  C   UNL     1      -2.822  -2.150   0.540  1.00  0.00     0.105 C 
ATOM     18  C   UNL     1      -1.493  -3.066  -1.231  1.00  0.00     0.105 C 
ENDBRANCH  15  16
ENDBRANCH  12  15
BRANCH   9  19
ATOM     19  C   UNL     1       2.898  -0.401  -0.220  1.00  0.00     0.018 A 
ATOM     20  C   UNL     1       3.961  -0.013  -1.047  1.00  0.00     0.012 A 
ATOM     21  C   UNL     1       2.788  -1.745   0.162  1.00  0.00     0.012 A 
ATOM     22  C   UNL     1       4.911  -0.948  -1.463  1.00  0.00     0.001 A 
ATOM     23  C   UNL     1       3.738  -2.679  -0.255  1.00  0.00     0.001 A 
ATOM     24  C   UNL     1       4.800  -2.280  -1.064  1.00  0.00     0.000 A 
ENDBRANCH   9  19
TORSDOF 4
