REMARK SMILES C[N+]1(C)CCC(=C(c2ccccc2)c2ccccc2)CC1
REMARK SMILES IDX 1 1 2 2 3 3 4 4 5 5 6 6 20 7 21 8 7 9 8 10 9 11 13 12 10 13
REMARK SMILES IDX 12 14 11 15 14 16 15 17 19 18 16 19 18 20 17 21
REMARK H PARENT
ROOT
ATOM      1  C   UNL     1       2.822  -0.010   1.364  1.00  0.00     0.334 C 
ATOM      2  N   UNL     1       3.034  -0.068  -0.150  1.00  0.00    -0.328 N 
ATOM      3  C   UNL     1       4.535   0.021  -0.418  1.00  0.00     0.334 C 
ATOM      4  C   UNL     1       2.516  -1.406  -0.710  1.00  0.00     0.268 C 
ATOM      5  C   UNL     1       1.000  -1.569  -0.514  1.00  0.00     0.093 C 
ATOM      6  C   UNL     1       0.219  -0.276  -0.710  1.00  0.00    -0.051 C 
ATOM      7  C   UNL     1       1.004   0.739  -1.515  1.00  0.00     0.093 C 
ATOM      8  C   UNL     1       2.322   1.130  -0.832  1.00  0.00     0.268 C 
ATOM      9  C   UNL     1      -1.018  -0.062  -0.190  1.00  0.00    -0.011 C 
ENDROOT
BRANCH   9  10
ATOM     10  C   UNL     1      -1.679   1.250  -0.379  1.00  0.00    -0.018 A 
ATOM     11  C   UNL     1      -1.419   2.311   0.499  1.00  0.00     0.009 A 
ATOM     12  C   UNL     1      -2.569   1.438  -1.443  1.00  0.00     0.009 A 
ATOM     13  C   UNL     1      -2.037   3.548   0.306  1.00  0.00     0.001 A 
ATOM     14  C   UNL     1      -3.184   2.676  -1.633  1.00  0.00     0.001 A 
ATOM     15  C   UNL     1      -2.916   3.730  -0.760  1.00  0.00     0.000 A 
ENDBRANCH   9  10
BRANCH   9  16
ATOM     16  C   UNL     1      -1.701  -1.148   0.555  1.00  0.00    -0.018 A 
ATOM     17  C   UNL     1      -2.251  -2.241  -0.129  1.00  0.00     0.009 A 
ATOM     18  C   UNL     1      -1.813  -1.086   1.949  1.00  0.00     0.009 A 
ATOM     19  C   UNL     1      -2.887  -3.265   0.574  1.00  0.00     0.001 A 
ATOM     20  C   UNL     1      -2.451  -2.111   2.651  1.00  0.00     0.001 A 
ATOM     21  C   UNL     1      -2.984  -3.201   1.963  1.00  0.00     0.000 A 
ENDBRANCH   9  16
TORSDOF 2
