REMARK SMILES CC(=O)Oc1cccc(C(=O)O)c1OC(C)=O
REMARK SMILES IDX 5 1 6 2 7 3 8 4 9 5 13 6 4 7 2 8 3 9 1 10 14 11 15 12 17 13
REMARK SMILES IDX 16 14 10 15 11 16 12 17
REMARK H PARENT 12 18
ROOT
ATOM      1  C   UNL     1       0.849  -0.835  -0.096  1.00  0.00     0.174 A 
ATOM      2  C   UNL     1       1.158  -2.166   0.187  1.00  0.00     0.051 A 
ATOM      3  C   UNL     1       0.164  -3.136   0.083  1.00  0.00     0.005 A 
ATOM      4  C   UNL     1      -1.126  -2.779  -0.322  1.00  0.00     0.020 A 
ATOM      5  C   UNL     1      -1.442  -1.444  -0.631  1.00  0.00     0.106 A 
ATOM      6  C   UNL     1      -0.440  -0.472  -0.515  1.00  0.00     0.187 A 
ENDROOT
BRANCH   1   7
ATOM      7  O   UNL     1       1.832   0.169  -0.053  1.00  0.00    -0.423 OA
BRANCH   7   8
ATOM      8  C   UNL     1       2.570   0.297   1.121  1.00  0.00     0.308 C 
ATOM      9  O   UNL     1       2.511  -0.417   2.112  1.00  0.00    -0.252 OA
ATOM     10  C   UNL     1       3.493   1.470   0.979  1.00  0.00     0.139 C 
ENDBRANCH   7   8
ENDBRANCH   1   7
BRANCH   6  11
ATOM     11  O   UNL     1      -0.665   0.852  -0.905  1.00  0.00    -0.422 OA
BRANCH  11  12
ATOM     12  C   UNL     1      -0.938   1.691   0.168  1.00  0.00     0.308 C 
ATOM     13  O   UNL     1      -0.932   1.392   1.354  1.00  0.00    -0.252 OA
ATOM     14  C   UNL     1      -1.223   3.067  -0.355  1.00  0.00     0.139 C 
ENDBRANCH  11  12
ENDBRANCH   6  11
BRANCH   5  15
ATOM     15  C   UNL     1      -2.829  -1.179  -1.084  1.00  0.00     0.339 C 
ATOM     16  O   UNL     1      -3.640  -2.037  -1.388  1.00  0.00    -0.246 OA
BRANCH  15  17
ATOM     17  O   UNL     1      -3.174   0.119  -1.116  1.00  0.00    -0.478 OA
ATOM     18  H   UNL     1      -4.113   0.097  -1.399  1.00  0.00     0.297 HD
ENDBRANCH  15  17
ENDBRANCH   5  15
TORSDOF 6
