REMARK SMILES CC(C)c1cccc(C(C)C)c1NC(=O)CN(CC(=O)O)CC(=O)O
REMARK SMILES IDX 16 1 14 2 13 3 15 4 12 6 4 7 5 8 6 9 8 10 7 11 2 12 1 13
REMARK SMILES IDX 3 14 9 15 10 16 11 17 17 18 18 19 19 20 20 21 21 22 22 24
REMARK SMILES IDX 23 25 24 26 25 27
REMARK H PARENT 13 5 21 23 25 28
ROOT
ATOM      1  C   UNL     1       1.564  -0.336  -1.370  1.00  0.00     0.186 C 
ENDROOT
BRANCH   1   2
ATOM      2  C   UNL     1       0.658  -0.346  -0.125  1.00  0.00     0.238 C 
ATOM      3  N   UNL     1      -0.653   0.015  -0.442  1.00  0.00    -0.324 N 
ATOM      4  O   UNL     1       1.046  -0.642   1.002  1.00  0.00    -0.273 OA
ATOM      5  H   UNL     1      -0.683   0.763  -1.125  1.00  0.00     0.170 HD
BRANCH   3   6
ATOM      6  C   UNL     1      -1.617   0.112   0.587  1.00  0.00     0.048 A 
ATOM      7  C   UNL     1      -2.254  -1.056   1.073  1.00  0.00    -0.022 A 
ATOM      8  C   UNL     1      -3.204  -0.909   2.105  1.00  0.00     0.006 A 
ATOM      9  C   UNL     1      -3.559   0.344   2.593  1.00  0.00     0.001 A 
ATOM     10  C   UNL     1      -1.977   1.398   1.069  1.00  0.00    -0.022 A 
ATOM     11  C   UNL     1      -2.965   1.485   2.067  1.00  0.00     0.006 A 
BRANCH   7  12
ATOM     12  C   UNL     1      -2.073  -2.476   0.532  1.00  0.00     0.015 C 
ATOM     13  C   UNL     1      -0.878  -3.209   1.138  1.00  0.00     0.012 C 
ATOM     14  C   UNL     1      -2.088  -2.600  -0.995  1.00  0.00     0.012 C 
ENDBRANCH   7  12
BRANCH  10  15
ATOM     15  C   UNL     1      -1.324   2.682   0.560  1.00  0.00     0.015 C 
ATOM     16  C   UNL     1      -2.266   3.413  -0.400  1.00  0.00     0.012 C 
ATOM     17  C   UNL     1      -0.869   3.615   1.687  1.00  0.00     0.012 C 
ENDBRANCH  10  15
ENDBRANCH   3   6
ENDBRANCH   1   2
BRANCH   1  18
ATOM     18  N   UNL     1       3.023  -0.402  -1.112  1.00  0.00    -0.273 NA
BRANCH  18  19
ATOM     19  C   UNL     1       3.448  -1.707  -0.545  1.00  0.00     0.208 C 
BRANCH  19  20
ATOM     20  C   UNL     1       3.234  -2.863  -1.513  1.00  0.00     0.317 C 
ATOM     21  O   UNL     1       2.170  -3.381  -1.819  1.00  0.00    -0.251 OA
BRANCH  20  22
ATOM     22  O   UNL     1       4.381  -3.310  -2.063  1.00  0.00    -0.480 OA
ATOM     23  H   UNL     1       4.086  -4.017  -2.672  1.00  0.00     0.296 HD
ENDBRANCH  20  22
ENDBRANCH  19  20
ENDBRANCH  18  19
BRANCH  18  24
ATOM     24  C   UNL     1       3.517   0.689  -0.238  1.00  0.00     0.208 C 
BRANCH  24  25
ATOM     25  C   UNL     1       3.257   2.078  -0.809  1.00  0.00     0.317 C 
ATOM     26  O   UNL     1       2.170   2.612  -0.978  1.00  0.00    -0.251 OA
BRANCH  25  27
ATOM     27  O   UNL     1       4.392   2.739  -1.132  1.00  0.00    -0.480 OA
ATOM     28  H   UNL     1       4.085   3.595  -1.490  1.00  0.00     0.296 HD
ENDBRANCH  25  27
ENDBRANCH  24  25
ENDBRANCH  18  24
ENDBRANCH   1  18
TORSDOF 11
