REMARK SMILES CC(C)(C)[N+]([O-])=Cc1ccc(S(=O)(=O)O)cc1S(=O)(=O)O
REMARK SMILES IDX 8 1 17 2 16 3 11 4 10 5 9 6 7 7 5 8 6 9 2 10 1 11 3 12 4 13
REMARK SMILES IDX 18 14 19 15 20 16 21 17 12 19 13 20 14 21 15 22
REMARK H PARENT 21 18 15 23
ROOT
ATOM      1  C   UNL     1       0.639  -0.193   0.405  1.00  0.00     0.060 A 
ATOM      2  C   UNL     1       1.612   0.785   0.152  1.00  0.00     0.108 A 
ATOM      3  C   UNL     1       2.974   0.456   0.174  1.00  0.00     0.046 A 
ATOM      4  C   UNL     1       3.354  -0.858   0.466  1.00  0.00     0.095 A 
ATOM      5  C   UNL     1       2.398  -1.839   0.731  1.00  0.00     0.024 A 
ATOM      6  C   UNL     1       1.042  -1.502   0.706  1.00  0.00     0.017 A 
ENDROOT
BRANCH   1   7
ATOM      7  C   UNL     1      -0.792   0.149   0.440  1.00  0.00     0.324 C 
ATOM      8  N   UNL     1      -1.737  -0.559  -0.150  1.00  0.00    -0.207 N 
ATOM      9  O   UNL     1      -1.423  -1.610  -0.806  1.00  0.00    -0.623 OA
BRANCH   8  10
ATOM     10  C   UNL     1      -3.192  -0.148  -0.095  1.00  0.00     0.164 C 
ATOM     11  C   UNL     1      -3.618  -0.118   1.375  1.00  0.00     0.091 C 
ATOM     12  C   UNL     1      -3.319   1.220  -0.769  1.00  0.00     0.091 C 
ATOM     13  C   UNL     1      -4.037  -1.181  -0.855  1.00  0.00     0.091 C 
ENDBRANCH   8  10
ENDBRANCH   1   7
BRANCH   2  14
ATOM     14  S   UNL     1       1.139   2.439  -0.254  1.00  0.00     0.295 S 
ATOM     15  O   UNL     1       0.835   3.119   0.984  1.00  0.00    -0.194 OA
ATOM     16  O   UNL     1       0.197   2.388  -1.350  1.00  0.00    -0.194 OA
BRANCH  14  17
ATOM     17  O   UNL     1       2.457   3.131  -0.876  1.00  0.00    -0.282 OA
ATOM     18  H   UNL     1       2.175   3.668  -1.647  1.00  0.00     0.234 HD
ENDBRANCH  14  17
ENDBRANCH   2  14
BRANCH   4  19
ATOM     19  S   UNL     1       5.077  -1.272   0.471  1.00  0.00     0.294 S 
ATOM     20  O   UNL     1       5.206  -2.704   0.314  1.00  0.00    -0.194 OA
ATOM     21  O   UNL     1       5.691  -0.558   1.566  1.00  0.00    -0.194 OA
BRANCH  19  22
ATOM     22  O   UNL     1       5.634  -0.649  -0.909  1.00  0.00    -0.282 OA
ATOM     23  H   UNL     1       6.108  -1.365  -1.383  1.00  0.00     0.234 HD
ENDBRANCH  19  22
ENDBRANCH   4  19
TORSDOF 6
