REMARK SMILES CCN1\C(=C/C=C/C=C/c2sc3ccccc3[n+]2CC)Sc2ccccc21
REMARK SMILES IDX 6 1 7 2 5 3 3 4 4 5 27 6 21 7 22 8 26 9 23 10 25 11 24 12
REMARK SMILES IDX 2 13 1 14 8 15 9 16 10 17 18 18 11 19 17 20 12 21 16 22
REMARK SMILES IDX 13 23 15 24 14 25 19 26 20 27
REMARK H PARENT
ROOT
ATOM      1  C   UNL     1      -1.276  -0.866  -0.079  1.00  0.00     0.003 C 
ATOM      2  C   UNL     1      -0.065  -1.437  -0.175  1.00  0.00     0.000 C 
ENDROOT
BRANCH   1   3
ATOM      3  C   UNL     1      -2.490  -1.551  -0.473  1.00  0.00     0.034 C 
ATOM      4  N   UNL     1      -4.376  -0.094   0.336  1.00  0.00    -0.335 N 
ATOM      5  C   UNL     1      -3.778  -1.184  -0.311  1.00  0.00     0.080 C 
ATOM      6  C   UNL     1      -5.784  -0.102   0.181  1.00  0.00     0.056 A 
ATOM      7  S   UNL     1      -4.973  -2.286  -1.094  1.00  0.00    -0.070 SA
ATOM      8  C   UNL     1      -6.277  -1.194  -0.562  1.00  0.00     0.037 A 
ATOM      9  C   UNL     1      -6.697   0.834   0.663  1.00  0.00     0.027 A 
ATOM     10  C   UNL     1      -7.631  -1.371  -0.820  1.00  0.00     0.017 A 
ATOM     11  C   UNL     1      -8.065   0.668   0.410  1.00  0.00     0.002 A 
ATOM     12  C   UNL     1      -8.530  -0.428  -0.325  1.00  0.00     0.001 A 
BRANCH   4  13
ATOM     13  C   UNL     1      -3.776   0.833   1.284  1.00  0.00     0.120 C 
ATOM     14  C   UNL     1      -3.408   2.144   0.604  1.00  0.00     0.027 C 
ENDBRANCH   4  13
ENDBRANCH   1   3
BRANCH   2  15
ATOM     15  C   UNL     1       1.160  -0.757   0.189  1.00  0.00     0.008 C 
ATOM     16  C   UNL     1       2.364  -1.345   0.097  1.00  0.00     0.092 C 
BRANCH  16  17
ATOM     17  C   UNL     1       3.559  -0.668   0.456  1.00  0.00     0.262 A 
ATOM     18  N   UNL     1       4.648  -0.537  -0.292  1.00  0.00    -0.182 N 
ATOM     19  S   UNL     1       3.785   0.063   1.995  1.00  0.00    -0.062 S 
ATOM     20  C   UNL     1       5.696   0.153   0.311  1.00  0.00     0.223 A 
ATOM     21  C   UNL     1       5.383   0.561   1.605  1.00  0.00     0.105 A 
ATOM     22  C   UNL     1       6.963   0.466  -0.224  1.00  0.00     0.081 A 
ATOM     23  C   UNL     1       6.297   1.270   2.399  1.00  0.00     0.026 A 
ATOM     24  C   UNL     1       7.880   1.172   0.565  1.00  0.00     0.007 A 
ATOM     25  C   UNL     1       7.550   1.566   1.857  1.00  0.00     0.002 A 
BRANCH  18  26
ATOM     26  C   UNL     1       4.738  -1.044  -1.668  1.00  0.00     0.355 C 
ATOM     27  C   UNL     1       4.315   0.005  -2.683  1.00  0.00     0.083 C 
ENDBRANCH  18  26
ENDBRANCH  16  17
ENDBRANCH   2  15
TORSDOF 5
