REMARK SMILES CCCCCCCCCCCC[N+](C)(C)CCOc1ccccc1
REMARK SMILES IDX 9 1 8 2 7 3 6 4 5 5 4 6 3 7 2 8 1 9 10 10 11 11 12 12 13 13
REMARK SMILES IDX 14 14 15 15 16 16 17 17 18 18 19 19 20 20 24 21 21 22 23 23
REMARK SMILES IDX 22 24
REMARK H PARENT
ROOT
ATOM      1  C   UNL     1       0.809   0.471  -0.771  1.00  0.00     0.000 C 
ENDROOT
BRANCH   1   2
ATOM      2  C   UNL     1       1.839  -0.660  -0.769  1.00  0.00     0.000 C 
BRANCH   2   3
ATOM      3  C   UNL     1       2.849  -0.560  -1.918  1.00  0.00     0.000 C 
BRANCH   3   4
ATOM      4  C   UNL     1       3.752   0.678  -1.908  1.00  0.00    -0.000 C 
BRANCH   4   5
ATOM      5  C   UNL     1       4.560   0.907  -0.625  1.00  0.00    -0.000 C 
BRANCH   5   6
ATOM      6  C   UNL     1       5.554  -0.216  -0.328  1.00  0.00    -0.000 C 
BRANCH   6   7
ATOM      7  C   UNL     1       6.315  -0.051   0.993  1.00  0.00    -0.000 C 
BRANCH   7   8
ATOM      8  C   UNL     1       7.217   1.184   1.068  1.00  0.00    -0.003 C 
ATOM      9  C   UNL     1       6.570   2.352   1.801  1.00  0.00     0.004 C 
ENDBRANCH   7   8
ENDBRANCH   6   7
ENDBRANCH   5   6
ENDBRANCH   4   5
ENDBRANCH   3   4
ENDBRANCH   2   3
ENDBRANCH   1   2
BRANCH   1  10
ATOM     10  C   UNL     1      -0.163   0.416   0.412  1.00  0.00     0.006 C 
BRANCH  10  11
ATOM     11  C   UNL     1      -0.986  -0.871   0.552  1.00  0.00     0.061 C 
BRANCH  11  12
ATOM     12  C   UNL     1      -1.868  -1.140  -0.669  1.00  0.00     0.263 C 
BRANCH  12  13
ATOM     13  N   UNL     1      -2.776  -2.386  -0.527  1.00  0.00    -0.326 N 
ATOM     14  C   UNL     1      -1.912  -3.647  -0.401  1.00  0.00     0.334 C 
ATOM     15  C   UNL     1      -3.586  -2.516  -1.820  1.00  0.00     0.334 C 
BRANCH  13  16
ATOM     16  C   UNL     1      -3.731  -2.341   0.701  1.00  0.00     0.305 C 
BRANCH  16  17
ATOM     17  C   UNL     1      -4.738  -1.178   0.725  1.00  0.00     0.290 C 
BRANCH  17  18
ATOM     18  O   UNL     1      -4.050   0.055   0.915  1.00  0.00    -0.488 OA
BRANCH  18  19
ATOM     19  C   UNL     1      -4.810   1.185   1.033  1.00  0.00     0.119 A 
ATOM     20  C   UNL     1      -6.201   1.254   0.931  1.00  0.00     0.046 A 
ATOM     21  C   UNL     1      -4.083   2.353   1.275  1.00  0.00     0.046 A 
ATOM     22  C   UNL     1      -6.853   2.482   1.071  1.00  0.00     0.004 A 
ATOM     23  C   UNL     1      -4.734   3.579   1.414  1.00  0.00     0.004 A 
ATOM     24  C   UNL     1      -6.121   3.643   1.312  1.00  0.00     0.000 A 
ENDBRANCH  18  19
ENDBRANCH  17  18
ENDBRANCH  16  17
ENDBRANCH  13  16
ENDBRANCH  12  13
ENDBRANCH  11  12
ENDBRANCH  10  11
ENDBRANCH   1  10
TORSDOF 15
