REMARK SMILES COc1cc(CC2c3c(cc(OC)c(OC)c3OC)CC[N+]2(C)CCCOC(=O)CCC(=O)OCCC[N+]2(C)CCc3cc(OC)c(OC)c(OC)c3C2Cc2cc(OC)c(OC)c(OC)c2)cc(OC)c1OC
REMARK SMILES IDX 31 1 32 2 33 3 34 4 35 5 36 6 37 7 38 8 54 9 53 10 50 11
REMARK SMILES IDX 42 12 40 13 47 14 43 15 41 16 44 17 39 18 55 19 56 20 58 21
REMARK SMILES IDX 57 22 61 23 64 24 67 25 59 26 60 27 62 28 63 29 65 30 66 31
REMARK SMILES IDX 51 32 52 33 48 34 49 35 45 36 46 37 30 38 28 39 29 40 27 41
REMARK SMILES IDX 26 42 25 43 24 44 22 45 21 46 7 47 20 48 8 49 9 50 17 51
REMARK SMILES IDX 10 52 14 53 11 54 23 55 6 56 5 57 4 58 68 59 3 60 69 61
REMARK SMILES IDX 72 62 2 63 1 64 70 65 71 66 73 67 74 68 18 69 19 70 15 71
REMARK SMILES IDX 16 72 12 73 13 74
REMARK H PARENT
ROOT
ATOM      1  C   UNL     1      -0.793  -1.962   3.008  1.00  0.00     0.134 C 
ENDROOT
BRANCH   1   2
ATOM      2  C   UNL     1      -2.044  -1.638   2.223  1.00  0.00     0.306 C 
ATOM      3  O   UNL     1      -2.739  -2.508   1.707  1.00  0.00    -0.252 OA
BRANCH   2   4
ATOM      4  O   UNL     1      -2.359  -0.311   2.219  1.00  0.00    -0.465 OA
BRANCH   4   5
ATOM      5  C   UNL     1      -3.643  -0.029   1.638  1.00  0.00     0.238 C 
BRANCH   5   6
ATOM      6  C   UNL     1      -3.740   1.455   1.309  1.00  0.00     0.103 C 
BRANCH   6   7
ATOM      7  C   UNL     1      -5.152   1.996   1.034  1.00  0.00     0.267 C 
BRANCH   7   8
ATOM      8  N   UNL     1      -5.889   1.503  -0.253  1.00  0.00    -0.319 N 
ATOM      9  C   UNL     1      -6.611   0.120  -0.003  1.00  0.00     0.225 C 
ATOM     10  C   UNL     1      -7.725   0.222   1.031  1.00  0.00     0.059 A 
ATOM     11  C   UNL     1      -8.064  -0.909   1.813  1.00  0.00     0.174 A 
ATOM     12  C   UNL     1      -8.442   1.420   1.188  1.00  0.00    -0.026 A 
ATOM     13  C   UNL     1      -6.983   2.538  -0.618  1.00  0.00     0.269 C 
ATOM     14  C   UNL     1      -9.125  -0.835   2.736  1.00  0.00     0.203 A 
ATOM     15  C   UNL     1      -9.497   1.478   2.111  1.00  0.00     0.055 A 
ATOM     16  C   UNL     1      -8.061   2.681   0.457  1.00  0.00     0.098 C 
ATOM     17  C   UNL     1      -9.839   0.372   2.894  1.00  0.00     0.164 A 
ATOM     18  C   UNL     1      -4.906   1.448  -1.417  1.00  0.00     0.335 C 
BRANCH   9  19
ATOM     19  C   UNL     1      -7.046  -0.664  -1.296  1.00  0.00     0.106 C 
BRANCH  19  20
ATOM     20  C   UNL     1      -8.201  -0.154  -2.133  1.00  0.00    -0.034 A 
ATOM     21  C   UNL     1      -9.034   0.864  -4.184  1.00  0.00     0.164 A 
ATOM     22  C   UNL     1      -7.978   0.341  -3.429  1.00  0.00     0.054 A 
ATOM     23  C   UNL     1     -10.324   0.906  -3.642  1.00  0.00     0.203 A 
ATOM     24  C   UNL     1     -10.580   0.343  -2.387  1.00  0.00     0.164 A 
ATOM     25  C   UNL     1      -9.519  -0.185  -1.644  1.00  0.00     0.054 A 
BRANCH  21  26
ATOM     26  O   UNL     1      -8.841   1.433  -5.415  1.00  0.00    -0.493 OA
ATOM     27  C   UNL     1      -8.066   0.633  -6.309  1.00  0.00     0.278 C 
ENDBRANCH  21  26
BRANCH  23  28
ATOM     28  O   UNL     1     -11.351   1.392  -4.414  1.00  0.00    -0.490 OA
ATOM     29  C   UNL     1     -11.675   2.729  -4.035  1.00  0.00     0.278 C 
ENDBRANCH  23  28
BRANCH  24  30
ATOM     30  O   UNL     1     -11.864   0.399  -1.912  1.00  0.00    -0.493 OA
ATOM     31  C   UNL     1     -12.294  -0.740  -1.174  1.00  0.00     0.278 C 
ENDBRANCH  24  30
ENDBRANCH  19  20
ENDBRANCH   9  19
BRANCH  11  32
ATOM     32  O   UNL     1      -7.244  -1.987   1.586  1.00  0.00    -0.492 OA
ATOM     33  C   UNL     1      -7.696  -3.287   1.950  1.00  0.00     0.278 C 
ENDBRANCH  11  32
BRANCH  14  34
ATOM     34  O   UNL     1      -9.355  -1.922   3.544  1.00  0.00    -0.490 OA
ATOM     35  C   UNL     1     -10.716  -2.354   3.590  1.00  0.00     0.278 C 
ENDBRANCH  14  34
BRANCH  17  36
ATOM     36  O   UNL     1     -10.816   0.396   3.853  1.00  0.00    -0.493 OA
ATOM     37  C   UNL     1     -11.533   1.608   4.066  1.00  0.00     0.278 C 
ENDBRANCH  17  36
ENDBRANCH   7   8
ENDBRANCH   6   7
ENDBRANCH   5   6
ENDBRANCH   4   5
ENDBRANCH   2   4
ENDBRANCH   1   2
BRANCH   1  38
ATOM     38  C   UNL     1       0.155  -0.803   3.276  1.00  0.00     0.134 C 
BRANCH  38  39
ATOM     39  C   UNL     1       0.981  -0.470   2.059  1.00  0.00     0.306 C 
ATOM     40  O   UNL     1       0.653  -0.699   0.905  1.00  0.00    -0.252 OA
BRANCH  39  41
ATOM     41  O   UNL     1       2.146   0.140   2.435  1.00  0.00    -0.465 OA
BRANCH  41  42
ATOM     42  C   UNL     1       2.976   0.628   1.369  1.00  0.00     0.238 C 
BRANCH  42  43
ATOM     43  C   UNL     1       3.971  -0.441   0.907  1.00  0.00     0.103 C 
BRANCH  43  44
ATOM     44  C   UNL     1       4.911  -0.853   2.044  1.00  0.00     0.267 C 
BRANCH  44  45
ATOM     45  N   UNL     1       6.102  -1.753   1.607  1.00  0.00    -0.319 N 
ATOM     46  C   UNL     1       5.618  -2.939   0.748  1.00  0.00     0.269 C 
ATOM     47  C   UNL     1       7.183  -0.874   0.769  1.00  0.00     0.225 C 
ATOM     48  C   UNL     1       6.791  -3.797   0.278  1.00  0.00     0.098 C 
ATOM     49  C   UNL     1       7.741  -1.581  -0.474  1.00  0.00     0.059 A 
ATOM     50  C   UNL     1       7.679  -2.979  -0.617  1.00  0.00    -0.026 A 
ATOM     51  C   UNL     1       8.310  -0.826  -1.527  1.00  0.00     0.174 A 
ATOM     52  C   UNL     1       8.363  -3.621  -1.663  1.00  0.00     0.055 A 
ATOM     53  C   UNL     1       9.021  -1.477  -2.551  1.00  0.00     0.203 A 
ATOM     54  C   UNL     1       9.059  -2.881  -2.616  1.00  0.00     0.164 A 
ATOM     55  C   UNL     1       6.691  -2.345   2.909  1.00  0.00     0.335 C 
BRANCH  47  56
ATOM     56  C   UNL     1       8.302  -0.349   1.736  1.00  0.00     0.106 C 
BRANCH  56  57
ATOM     57  C   UNL     1       9.195   0.768   1.246  1.00  0.00    -0.034 A 
ATOM     58  C   UNL     1      10.509   0.488   0.831  1.00  0.00     0.054 A 
ATOM     59  C   UNL     1       8.719   2.091   1.187  1.00  0.00     0.054 A 
ATOM     60  C   UNL     1      11.332   1.507   0.348  1.00  0.00     0.164 A 
ATOM     61  C   UNL     1       9.526   3.117   0.686  1.00  0.00     0.164 A 
ATOM     62  C   UNL     1      10.824   2.810   0.247  1.00  0.00     0.203 A 
BRANCH  60  63
ATOM     63  O   UNL     1      12.606   1.289  -0.108  1.00  0.00    -0.493 OA
ATOM     64  C   UNL     1      13.365   0.337   0.631  1.00  0.00     0.278 C 
ENDBRANCH  60  63
BRANCH  61  65
ATOM     65  O   UNL     1       9.145   4.428   0.569  1.00  0.00    -0.493 OA
ATOM     66  C   UNL     1       7.861   4.800   1.045  1.00  0.00     0.278 C 
ENDBRANCH  61  65
BRANCH  62  67
ATOM     67  O   UNL     1      11.638   3.824  -0.202  1.00  0.00    -0.490 OA
ATOM     68  C   UNL     1      11.580   3.912  -1.625  1.00  0.00     0.278 C 
ENDBRANCH  62  67
ENDBRANCH  56  57
ENDBRANCH  47  56
BRANCH  51  69
ATOM     69  O   UNL     1       8.072   0.520  -1.432  1.00  0.00    -0.492 OA
ATOM     70  C   UNL     1       8.231   1.335  -2.591  1.00  0.00     0.278 C 
ENDBRANCH  51  69
BRANCH  53  71
ATOM     71  O   UNL     1       9.651  -0.752  -3.534  1.00  0.00    -0.490 OA
ATOM     72  C   UNL     1      11.054  -0.653  -3.266  1.00  0.00     0.278 C 
ENDBRANCH  53  71
BRANCH  54  73
ATOM     73  O   UNL     1       9.745  -3.424  -3.670  1.00  0.00    -0.493 OA
ATOM     74  C   UNL     1       9.935  -4.834  -3.689  1.00  0.00     0.278 C 
ENDBRANCH  54  73
ENDBRANCH  44  45
ENDBRANCH  43  44
ENDBRANCH  42  43
ENDBRANCH  41  42
ENDBRANCH  39  41
ENDBRANCH  38  39
ENDBRANCH   1  38
TORSDOF 29
