REMARK SMILES COc1cccc2c1C(=O)c1c(O)c3c(c(O)c1C2=O)C[C@@](O)(C(=O)CO)C[C@@H]3O[C@H]1C[C@H](N)[C@H](O)[C@H](C)O1
REMARK SMILES IDX 3 1 8 2 9 3 10 4 11 5 18 6 16 7 15 8 21 9 22 10 28 11 29 12
REMARK SMILES IDX 14 13 12 14 19 15 20 16 7 17 6 18 5 19 4 20 2 21 1 22 13 23
REMARK SMILES IDX 17 25 30 27 31 28 32 29 39 30 33 31 37 32 35 33 38 34 34 35
REMARK SMILES IDX 36 38 23 40 24 42 25 43 26 44 27 45
REMARK H PARENT 13 24 17 26 34 36 34 37 36 39 23 41 27 46
ROOT
ATOM      1  C   UNL     1       5.474  -2.484   0.622  1.00  0.00     0.130 A 
ATOM      2  C   UNL     1       4.682  -1.317   0.565  1.00  0.00     0.076 A 
ATOM      3  C   UNL     1       3.384  -1.277  -0.159  1.00  0.00     0.202 C 
ATOM      4  O   UNL     1       3.005  -2.187  -0.890  1.00  0.00    -0.288 OA
ATOM      5  C   UNL     1       2.499  -0.096  -0.035  1.00  0.00     0.080 A 
ATOM      6  C   UNL     1       2.954   1.051   0.602  1.00  0.00     0.080 A 
ATOM      7  C   UNL     1       2.116   2.175   0.696  1.00  0.00     0.131 A 
ATOM      8  C   UNL     1       0.806   2.156   0.188  1.00  0.00     0.008 A 
ATOM      9  C   UNL     1      -0.052   3.404   0.321  1.00  0.00     0.083 C 
ATOM     10  C   UNL     1      -1.531   3.212  -0.044  1.00  0.00     0.132 C 
ATOM     11  C   UNL     1      -1.673   2.296  -1.267  1.00  0.00     0.081 C 
ATOM     12  C   UNL     1      -1.067   0.915  -1.018  1.00  0.00     0.159 C 
ATOM     13  C   UNL     1       0.342   0.998  -0.469  1.00  0.00     0.031 A 
ATOM     14  C   UNL     1       1.201  -0.113  -0.576  1.00  0.00     0.133 A 
ATOM     15  C   UNL     1       4.316   1.079   1.167  1.00  0.00     0.198 C 
ATOM     16  O   UNL     1       4.759   2.129   1.623  1.00  0.00    -0.288 OA
ATOM     17  C   UNL     1       5.127  -0.152   1.195  1.00  0.00     0.038 A 
ATOM     18  C   UNL     1       6.352  -0.129   1.873  1.00  0.00     0.013 A 
ATOM     19  C   UNL     1       7.134  -1.276   1.927  1.00  0.00     0.005 A 
ATOM     20  C   UNL     1       6.696  -2.448   1.309  1.00  0.00     0.047 A 
ENDROOT
BRANCH   1  21
ATOM     21  O   UNL     1       4.985  -3.615   0.027  1.00  0.00    -0.496 OA
ATOM     22  C   UNL     1       5.858  -4.726  -0.135  1.00  0.00     0.278 C 
ENDBRANCH   1  21
BRANCH  14  23
ATOM     23  O   UNL     1       0.712  -1.215  -1.236  1.00  0.00    -0.507 OA
ATOM     24  H   UNL     1       1.432  -1.888  -1.297  1.00  0.00     0.293 HD
ENDBRANCH  14  23
BRANCH   7  25
ATOM     25  O   UNL     1       2.538   3.345   1.278  1.00  0.00    -0.507 OA
ATOM     26  H   UNL     1       3.486   3.251   1.519  1.00  0.00     0.293 HD
ENDBRANCH   7  25
BRANCH  12  27
ATOM     27  O   UNL     1      -1.862   0.235  -0.040  1.00  0.00    -0.344 OA
BRANCH  27  28
ATOM     28  C   UNL     1      -2.582  -0.874  -0.585  1.00  0.00     0.252 C 
ATOM     29  C   UNL     1      -2.975  -1.775   0.591  1.00  0.00     0.083 C 
ATOM     30  O   UNL     1      -3.708  -0.355  -1.292  1.00  0.00    -0.347 OA
ATOM     31  C   UNL     1      -4.445  -1.585   0.948  1.00  0.00     0.087 C 
ATOM     32  C   UNL     1      -4.729  -1.320  -1.580  1.00  0.00     0.148 C 
ATOM     33  C   UNL     1      -5.315  -1.922  -0.283  1.00  0.00     0.160 C 
ATOM     34  C   UNL     1      -4.245  -2.333  -2.616  1.00  0.00     0.041 C 
BRANCH  31  35
ATOM     35  N   UNL     1      -4.810  -2.474   2.073  1.00  0.00    -0.325 NA
ATOM     36  H   UNL     1      -5.751  -2.231   2.391  1.00  0.00     0.119 HD
ATOM     37  H   UNL     1      -4.198  -2.266   2.867  1.00  0.00     0.119 HD
ENDBRANCH  31  35
BRANCH  33  38
ATOM     38  O   UNL     1      -5.464  -3.346  -0.384  1.00  0.00    -0.389 OA
ATOM     39  H   UNL     1      -5.296  -3.673   0.529  1.00  0.00     0.211 HD
ENDBRANCH  33  38
ENDBRANCH  27  28
ENDBRANCH  12  27
BRANCH  10  40
ATOM     40  O   UNL     1      -2.182   2.638   1.102  1.00  0.00    -0.382 OA
ATOM     41  H   UNL     1      -2.590   1.793   0.837  1.00  0.00     0.212 HD
ENDBRANCH  10  40
BRANCH  10  42
ATOM     42  C   UNL     1      -2.197   4.580  -0.343  1.00  0.00     0.190 C 
ATOM     43  O   UNL     1      -3.065   5.084   0.380  1.00  0.00    -0.294 OA
BRANCH  42  44
ATOM     44  C   UNL     1      -1.787   5.321  -1.618  1.00  0.00     0.234 C 
BRANCH  44  45
ATOM     45  O   UNL     1      -2.253   6.665  -1.610  1.00  0.00    -0.388 OA
ATOM     46  H   UNL     1      -3.022   6.676  -1.005  1.00  0.00     0.211 HD
ENDBRANCH  44  45
ENDBRANCH  42  44
ENDBRANCH  10  42
TORSDOF 11
