REMARK SMILES CC(C)c1cc2c(cc1S(=O)(=O)O)[C@@]1(C)CCC[C@@](C)(C(=O)O)[C@@H]1CC2
REMARK SMILES IDX 4 1 9 2 8 3 7 4 6 5 26 6 25 7 24 8 19 9 20 10 18 11 17 12
REMARK SMILES IDX 16 13 14 14 15 15 5 16 2 17 1 18 3 19 10 20 11 21 12 22
REMARK SMILES IDX 13 23 21 25 22 26 23 27
REMARK H PARENT 13 24 23 28
ROOT
ATOM      1  C   UNL     1       3.026  -0.349  -0.149  1.00  0.00    -0.024 A 
ATOM      2  C   UNL     1       2.589   0.495   0.886  1.00  0.00     0.098 A 
ATOM      3  C   UNL     1       1.208   0.632   1.157  1.00  0.00     0.027 A 
ATOM      4  C   UNL     1       0.214  -0.029   0.411  1.00  0.00    -0.037 A 
ATOM      5  C   UNL     1       0.636  -0.872  -0.622  1.00  0.00    -0.044 A 
ATOM      6  C   UNL     1      -0.328  -1.614  -1.511  1.00  0.00     0.036 C 
ATOM      7  C   UNL     1      -1.744  -1.697  -0.953  1.00  0.00     0.010 C 
ATOM      8  C   UNL     1      -2.187  -0.326  -0.417  1.00  0.00     0.017 C 
ATOM      9  C   UNL     1      -3.728  -0.224  -0.152  1.00  0.00     0.069 C 
ATOM     10  C   UNL     1      -4.359  -1.501   0.447  1.00  0.00     0.024 C 
ATOM     11  C   UNL     1      -4.066   0.963   0.788  1.00  0.00     0.019 C 
ATOM     12  C   UNL     1      -3.030   2.079   0.739  1.00  0.00     0.002 C 
ATOM     13  C   UNL     1      -1.612   1.625   1.094  1.00  0.00     0.012 C 
ATOM     14  C   UNL     1      -1.279   0.135   0.774  1.00  0.00    -0.003 C 
ATOM     15  C   UNL     1      -1.482  -0.710   2.058  1.00  0.00     0.017 C 
ATOM     16  C   UNL     1       2.013  -1.006  -0.891  1.00  0.00     0.009 A 
ENDROOT
BRANCH   1  17
ATOM     17  C   UNL     1       4.449  -0.666  -0.597  1.00  0.00     0.014 C 
ATOM     18  C   UNL     1       5.497  -0.915   0.487  1.00  0.00     0.012 C 
ATOM     19  C   UNL     1       4.944   0.314  -1.664  1.00  0.00     0.012 C 
ENDBRANCH   1  17
BRANCH   2  20
ATOM     20  S   UNL     1       3.649   1.490   1.920  1.00  0.00     0.294 S 
ATOM     21  O   UNL     1       2.877   2.621   2.396  1.00  0.00    -0.194 OA
ATOM     22  O   UNL     1       4.333   0.614   2.843  1.00  0.00    -0.194 OA
BRANCH  20  23
ATOM     23  O   UNL     1       4.731   2.165   0.939  1.00  0.00    -0.282 OA
ATOM     24  H   UNL     1       4.567   3.132   0.952  1.00  0.00     0.234 HD
ENDBRANCH  20  23
ENDBRANCH   2  20
BRANCH   9  25
ATOM     25  C   UNL     1      -4.414  -0.015  -1.513  1.00  0.00     0.309 C 
ATOM     26  O   UNL     1      -4.957  -0.870  -2.194  1.00  0.00    -0.252 OA
BRANCH  25  27
ATOM     27  O   UNL     1      -4.337   1.244  -1.983  1.00  0.00    -0.481 OA
ATOM     28  H   UNL     1      -4.794   1.200  -2.849  1.00  0.00     0.296 HD
ENDBRANCH  25  27
ENDBRANCH   9  25
TORSDOF 5
