REMARK SMILES CCc1cc(S(=O)(=O)O)c2cc(C(C)C)cccc1-2
REMARK SMILES IDX 3 1 19 2 11 3 10 4 5 5 4 6 2 7 1 8 18 9 17 10 6 12 7 13 8 14
REMARK SMILES IDX 9 15 12 17 16 18 13 20 14 21 15 22
REMARK H PARENT 9 16
REMARK Flexibility Score:    1.900
ROOT
ATOM      1  C   UNL     1      -2.468  -0.238   0.634  1.00  0.00    -0.039 C 
ATOM      2  C   UNL     1      -1.166  -0.610   0.580  1.00  0.00    -0.014 C 
ATOM      3  C   UNL     1       0.895   0.651  -0.130  1.00  0.00     0.014 C 
ATOM      4  C   UNL     1      -0.432   0.544   0.048  1.00  0.00     0.003 C 
ATOM      5  C   UNL     1      -1.410   1.589  -0.226  1.00  0.00     0.102 C 
ATOM      6  C   UNL     1      -2.611   1.128   0.151  1.00  0.00     0.027 C 
ENDROOT
BRANCH   1   7
ATOM      7  C   UNL     1      -3.674  -0.991   1.108  1.00  0.00     0.033 C 
ATOM      8  C   UNL     1      -4.471  -1.581  -0.047  1.00  0.00     0.009 C 
ENDBRANCH   1   7
BRANCH   2   9
ATOM      9  C   UNL     1      -0.671  -1.916   0.926  1.00  0.00     0.009 C 
ATOM     10  C   UNL     1       0.606  -2.314   0.921  1.00  0.00     0.001 CG0
ATOM     11  G   UNL     1       1.800  -1.567   0.605  1.00  0.00     0.000 G0
ENDBRANCH   2   9
BRANCH   5  12
ATOM     12  S   UNL     1      -1.166   3.169  -0.827  1.00  0.00     0.295 S 
ATOM     13  O   UNL     1      -0.164   3.189  -1.873  1.00  0.00    -0.194 OA
ATOM     14  O   UNL     1      -1.125   4.125   0.258  1.00  0.00    -0.194 OA
BRANCH  12  15
ATOM     15  O   UNL     1      -2.554   3.419  -1.615  1.00  0.00    -0.282 OA
ATOM     16  H   UNL     1      -2.320   3.711  -2.521  1.00  0.00     0.234 HD
ENDBRANCH  12  15
ENDBRANCH   5  12
BRANCH   3  17
ATOM     17  C   UNL     1       1.963  -0.307   0.156  1.00  0.00    -0.045 C 
ATOM     18  C   UNL     1       1.800  -1.567   0.605  1.00  0.00     0.004 CG0
ATOM     19  G   UNL     1       0.606  -2.314   0.921  1.00  0.00     0.000 G0
BRANCH  17  20
ATOM     20  C   UNL     1       3.371   0.266  -0.100  1.00  0.00     0.013 C 
ATOM     21  C   UNL     1       4.473  -0.258   0.833  1.00  0.00     0.012 C 
ATOM     22  C   UNL     1       3.779   0.051  -1.562  1.00  0.00     0.012 C 
ENDBRANCH  17  20
ENDBRANCH   3  17
TORSDOF 4
