REMARK SMILES CN1CCC[C@@H]1Cc1c[nH]c2ccc(CCS(=O)(=O)c3ccccc3)cc12
REMARK SMILES IDX 8 1 9 2 10 3 11 4 27 5 26 6 14 7 13 8 12 9 7 11 6 12 2 13
REMARK SMILES IDX 3 14 4 15 5 16 1 17 15 18 16 19 17 20 18 21 19 22 20 23
REMARK SMILES IDX 21 24 25 25 22 26 24 27 23 28
REMARK H PARENT 10 10
ROOT
ATOM      1  C   UNL     1      -2.259  -0.735   1.514  1.00  0.00    -0.021 A 
ATOM      2  C   UNL     1      -2.553  -0.662   2.862  1.00  0.00     0.087 A 
ATOM      3  N   UNL     1      -1.460  -0.161   3.515  1.00  0.00    -0.361 N 
ATOM      4  C   UNL     1      -0.450   0.102   2.620  1.00  0.00     0.046 A 
ATOM      5  C   UNL     1      -0.918  -0.255   1.357  1.00  0.00     0.003 A 
ATOM      6  C   UNL     1      -0.055  -0.089   0.252  1.00  0.00     0.014 A 
ATOM      7  C   UNL     1       1.243   0.421   0.437  1.00  0.00    -0.046 A 
ATOM      8  C   UNL     1       1.666   0.774   1.723  1.00  0.00     0.006 A 
ATOM      9  C   UNL     1       0.832   0.617   2.835  1.00  0.00     0.027 A 
ATOM     10  H   UNL     1      -1.394  -0.009   4.511  1.00  0.00     0.166 HD
ENDROOT
BRANCH   1  11
ATOM     11  C   UNL     1      -3.173  -1.237   0.435  1.00  0.00     0.057 C 
BRANCH  11  12
ATOM     12  C   UNL     1      -4.217  -0.193  -0.003  1.00  0.00     0.060 C 
ATOM     13  N   UNL     1      -5.161  -0.676  -1.032  1.00  0.00    -0.303 NA
ATOM     14  C   UNL     1      -5.807   0.534  -1.550  1.00  0.00     0.084 C 
ATOM     15  C   UNL     1      -4.684   1.557  -1.616  1.00  0.00     0.017 C 
ATOM     16  C   UNL     1      -3.586   1.007  -0.714  1.00  0.00     0.021 C 
ATOM     17  C   UNL     1      -6.145  -1.620  -0.516  1.00  0.00     0.105 C 
ENDBRANCH  11  12
ENDBRANCH   1  11
BRANCH   7  18
ATOM     18  C   UNL     1       2.161   0.601  -0.747  1.00  0.00     0.052 C 
BRANCH  18  19
ATOM     19  C   UNL     1       2.604  -0.697  -1.410  1.00  0.00     0.147 C 
BRANCH  19  20
ATOM     20  S   UNL     1       3.882  -1.592  -0.552  1.00  0.00     0.178 S 
ATOM     21  O   UNL     1       4.382  -2.611  -1.458  1.00  0.00    -0.224 OA
ATOM     22  O   UNL     1       3.411  -1.962   0.768  1.00  0.00    -0.224 OA
BRANCH  20  23
ATOM     23  C   UNL     1       5.207  -0.424  -0.345  1.00  0.00     0.067 A 
ATOM     24  C   UNL     1       5.515   0.063   0.928  1.00  0.00     0.020 A 
ATOM     25  C   UNL     1       5.949  -0.030  -1.463  1.00  0.00     0.020 A 
ATOM     26  C   UNL     1       6.556   0.979   1.076  1.00  0.00     0.001 A 
ATOM     27  C   UNL     1       6.990   0.886  -1.305  1.00  0.00     0.001 A 
ATOM     28  C   UNL     1       7.289   1.392  -0.039  1.00  0.00     0.000 A 
ENDBRANCH  20  23
ENDBRANCH  19  20
ENDBRANCH  18  19
ENDBRANCH   7  18
TORSDOF 6
