REMARK SMILES COc1cc2c(cc1Cc1cccc(Cl)c1F)c(=O)c(C(=O)O)cn2[C@H](CO)C(C)C
REMARK SMILES IDX 3 1 8 2 7 3 6 4 18 5 19 6 20 7 24 8 25 9 5 10 4 11 2 12 1 13
REMARK SMILES IDX 9 14 10 15 16 16 11 17 14 18 12 19 13 20 17 21 15 22 26 23
REMARK SMILES IDX 27 24 28 25 29 27 30 28 31 29 21 30 22 31 23 32
REMARK H PARENT 28 26 23 33
ROOT
ATOM      1  C   UNL     1       1.196  -1.683  -0.276  1.00  0.00     0.124 A 
ATOM      2  C   UNL     1       2.164  -0.965  -0.987  1.00  0.00    -0.001 A 
ATOM      3  C   UNL     1       1.761   0.183  -1.682  1.00  0.00     0.022 A 
ATOM      4  C   UNL     1       0.420   0.600  -1.671  1.00  0.00     0.047 A 
ATOM      5  C   UNL     1       0.070   1.841  -2.409  1.00  0.00     0.203 C 
ATOM      6  O   UNL     1       0.908   2.395  -3.113  1.00  0.00    -0.288 OA
ATOM      7  C   UNL     1      -1.310   2.344  -2.265  1.00  0.00     0.124 C 
ATOM      8  C   UNL     1      -2.182   1.562  -1.612  1.00  0.00     0.106 C 
ATOM      9  N   UNL     1      -1.926   0.326  -1.025  1.00  0.00    -0.341 N 
ATOM     10  C   UNL     1      -0.577  -0.126  -0.987  1.00  0.00     0.056 A 
ATOM     11  C   UNL     1      -0.150  -1.273  -0.291  1.00  0.00     0.073 A 
ENDROOT
BRANCH   1  12
ATOM     12  O   UNL     1       1.625  -2.813   0.370  1.00  0.00    -0.496 OA
ATOM     13  C   UNL     1       0.931  -3.156   1.565  1.00  0.00     0.278 C 
ENDBRANCH   1  12
BRANCH   2  14
ATOM     14  C   UNL     1       3.626  -1.361  -0.985  1.00  0.00     0.078 C 
BRANCH  14  15
ATOM     15  C   UNL     1       4.463  -0.561  -0.015  1.00  0.00    -0.006 A 
ATOM     16  C   UNL     1       4.632  -0.987   1.308  1.00  0.00     0.145 A 
ATOM     17  C   UNL     1       5.063   0.646  -0.412  1.00  0.00     0.007 A 
ATOM     18  C   UNL     1       5.374  -0.230   2.216  1.00  0.00     0.077 A 
ATOM     19  C   UNL     1       5.809   1.404   0.494  1.00  0.00     0.002 A 
ATOM     20  C   UNL     1       5.963   0.968   1.810  1.00  0.00     0.023 A 
ATOM     21  F   UNL     1       4.077  -2.143   1.705  1.00  0.00    -0.205 F 
ATOM     22  Cl  UNL     1       5.568  -0.755   3.845  1.00  0.00    -0.081 Cl
ENDBRANCH  14  15
ENDBRANCH   2  14
BRANCH   9  23
ATOM     23  C   UNL     1      -2.998  -0.493  -0.365  1.00  0.00     0.115 C 
BRANCH  23  24
ATOM     24  C   UNL     1      -4.331  -0.456  -1.158  1.00  0.00     0.181 C 
BRANCH  24  25
ATOM     25  O   UNL     1      -5.217  -1.489  -0.733  1.00  0.00    -0.394 OA
ATOM     26  H   UNL     1      -6.001  -1.447  -1.309  1.00  0.00     0.210 HD
ENDBRANCH  24  25
ENDBRANCH  23  24
BRANCH  23  27
ATOM     27  C   UNL     1      -3.108  -0.124   1.148  1.00  0.00     0.008 C 
ATOM     28  C   UNL     1      -3.864   1.177   1.432  1.00  0.00     0.009 C 
ATOM     29  C   UNL     1      -3.725  -1.260   1.973  1.00  0.00     0.009 C 
ENDBRANCH  23  27
ENDBRANCH   9  23
BRANCH   7  30
ATOM     30  C   UNL     1      -1.803   3.622  -2.792  1.00  0.00     0.341 C 
ATOM     31  O   UNL     1      -2.967   3.874  -3.063  1.00  0.00    -0.246 OA
BRANCH  30  32
ATOM     32  O   UNL     1      -0.855   4.563  -2.901  1.00  0.00    -0.477 OA
ATOM     33  H   UNL     1      -1.311   5.343  -3.274  1.00  0.00     0.297 HD
ENDBRANCH  30  32
ENDBRANCH   7  30
TORSDOF 9
