REMARK SMILES CCOc1c(N2CCOCC2)cnn(C)c1=O
REMARK SMILES IDX 3 1 2 2 1 3 4 4 5 5 16 6 12 7 14 8 17 9 13 10 15 11 6 12
REMARK SMILES IDX 7 13 11 14 8 15 10 16 9 17
REMARK H PARENT
ROOT
ATOM      1  O   UNL     1      -1.223  -0.613   1.137  1.00  0.00    -0.487 OA
ENDROOT
BRANCH   1   2
ATOM      2  C   UNL     1      -2.319  -1.402   0.666  1.00  0.00     0.226 C 
ATOM      3  C   UNL     1      -2.049  -2.848   1.040  1.00  0.00     0.049 C 
ENDBRANCH   1   2
BRANCH   1   4
ATOM      4  C   UNL     1      -0.999   0.535   0.376  1.00  0.00     0.211 C 
ATOM      5  C   UNL     1       0.229   0.782  -0.125  1.00  0.00     0.106 C 
ATOM      6  C   UNL     1      -2.136   1.497   0.145  1.00  0.00     0.310 C 
ATOM      7  C   UNL     1       0.309   2.042  -0.919  1.00  0.00     0.163 C 
ATOM      8  N   UNL     1      -1.884   2.560  -0.711  1.00  0.00    -0.230 N 
ATOM      9  O   UNL     1      -3.227   1.319   0.688  1.00  0.00    -0.263 OA
ATOM     10  N   UNL     1      -0.647   2.861  -1.206  1.00  0.00    -0.176 NA
ATOM     11  C   UNL     1      -2.923   3.539  -0.971  1.00  0.00     0.178 C 
BRANCH   5  12
ATOM     12  N   UNL     1       1.399   0.012   0.022  1.00  0.00    -0.362 N 
ATOM     13  C   UNL     1       1.594  -0.942   1.139  1.00  0.00     0.145 C 
ATOM     14  C   UNL     1       2.516   0.032  -0.947  1.00  0.00     0.145 C 
ATOM     15  C   UNL     1       3.091  -1.151   1.419  1.00  0.00     0.181 C 
ATOM     16  C   UNL     1       3.250  -1.318  -0.962  1.00  0.00     0.181 C 
ATOM     17  O   UNL     1       3.824  -1.673   0.302  1.00  0.00    -0.378 OA
ENDBRANCH   5  12
ENDBRANCH   1   4
TORSDOF 3
