REMARK SMILES O=C(O)c1ccccc1NCCc1ccccc1
REMARK SMILES IDX 4 1 9 2 8 3 7 4 6 5 5 6 2 7 1 8 3 9 10 11 11 13 12 14 13 15
REMARK SMILES IDX 14 16 18 17 15 18 17 19 16 20
REMARK H PARENT 3 10 10 12
ROOT
ATOM      1  C   UNL     1      -2.075   0.743  -0.010  1.00  0.00     0.083 A 
ATOM      2  C   UNL     1      -1.655  -0.340  -0.820  1.00  0.00     0.049 A 
ATOM      3  C   UNL     1      -2.476  -1.482  -0.861  1.00  0.00     0.026 A 
ATOM      4  C   UNL     1      -3.643  -1.577  -0.098  1.00  0.00     0.002 A 
ATOM      5  C   UNL     1      -4.030  -0.521   0.716  1.00  0.00     0.001 A 
ATOM      6  C   UNL     1      -3.252   0.634   0.757  1.00  0.00     0.018 A 
ENDROOT
BRANCH   1   7
ATOM      7  C   UNL     1      -1.329   2.025   0.147  1.00  0.00     0.337 C 
ATOM      8  O   UNL     1      -1.621   2.920   0.924  1.00  0.00    -0.246 OA
BRANCH   7   9
ATOM      9  O   UNL     1      -0.249   2.145  -0.646  1.00  0.00    -0.478 OA
ATOM     10  H   UNL     1       0.144   3.003  -0.379  1.00  0.00     0.297 HD
ENDBRANCH   7   9
ENDBRANCH   1   7
BRANCH   2  11
ATOM     11  N   UNL     1      -0.507  -0.273  -1.631  1.00  0.00    -0.384 N 
ATOM     12  H   UNL     1       0.003   0.599  -1.434  1.00  0.00     0.160 HD
BRANCH  11  13
ATOM     13  C   UNL     1       0.411  -1.416  -1.681  1.00  0.00     0.117 C 
BRANCH  13  14
ATOM     14  C   UNL     1       1.092  -1.714  -0.335  1.00  0.00     0.056 C 
BRANCH  14  15
ATOM     15  C   UNL     1       1.926  -0.577   0.210  1.00  0.00    -0.046 A 
ATOM     16  C   UNL     1       3.083  -0.150  -0.456  1.00  0.00     0.004 A 
ATOM     17  C   UNL     1       1.552   0.068   1.397  1.00  0.00     0.004 A 
ATOM     18  C   UNL     1       3.841   0.908   0.049  1.00  0.00     0.000 A 
ATOM     19  C   UNL     1       2.309   1.127   1.900  1.00  0.00     0.000 A 
ATOM     20  C   UNL     1       3.453   1.548   1.225  1.00  0.00     0.000 A 
ENDBRANCH  14  15
ENDBRANCH  13  14
ENDBRANCH  11  13
ENDBRANCH   2  11
TORSDOF 6
