REMARK SMILES CSc1ccc(C(=O)c2[nH]c(=O)[nH]c2C)cc1
REMARK SMILES IDX 3 1 4 2 5 3 6 4 16 5 17 6 2 7 1 8 7 9 8 10 9 11 14 12 10 13
REMARK SMILES IDX 13 14 11 15 12 16 15 17
REMARK H PARENT 10 18 13 19
ROOT
ATOM      1  C   UNL     1      -2.917  -1.186  -0.462  1.00  0.00     0.007 A 
ATOM      2  C   UNL     1      -2.166  -0.805   0.655  1.00  0.00     0.016 A 
ATOM      3  C   UNL     1      -0.783  -0.620   0.552  1.00  0.00     0.013 A 
ATOM      4  C   UNL     1      -0.142  -0.812  -0.678  1.00  0.00     0.024 A 
ATOM      5  C   UNL     1      -0.884  -1.228  -1.788  1.00  0.00     0.013 A 
ATOM      6  C   UNL     1      -2.266  -1.412  -1.679  1.00  0.00     0.016 A 
ENDROOT
BRANCH   1   7
ATOM      7  S   UNL     1      -4.677  -1.452  -0.363  1.00  0.00    -0.130 SA
ATOM      8  C   UNL     1      -5.209   0.159   0.275  1.00  0.00     0.091 C 
ENDBRANCH   1   7
BRANCH   4   9
ATOM      9  C   UNL     1       1.325  -0.640  -0.834  1.00  0.00     0.211 C 
ATOM     10  O   UNL     1       1.945  -1.394  -1.577  1.00  0.00    -0.287 OA
BRANCH   9  11
ATOM     11  C   UNL     1       1.994   0.468  -0.107  1.00  0.00     0.110 C 
ATOM     12  C   UNL     1       3.288   0.542   0.257  1.00  0.00     0.044 C 
ATOM     13  N   UNL     1       1.368   1.640   0.265  1.00  0.00    -0.303 N 
ATOM     14  N   UNL     1       3.489   1.759   0.876  1.00  0.00    -0.310 N 
ATOM     15  C   UNL     1       2.293   2.481   0.886  1.00  0.00     0.323 C 
ATOM     16  O   UNL     1       2.096   3.594   1.332  1.00  0.00    -0.248 OA
ATOM     17  C   UNL     1       4.412  -0.416   0.107  1.00  0.00     0.067 C 
ATOM     18  H   UNL     1       0.414   1.908   0.081  1.00  0.00     0.172 HD
ATOM     19  H   UNL     1       4.357   2.114   1.249  1.00  0.00     0.171 HD
ENDBRANCH   9  11
ENDBRANCH   4   9
TORSDOF 3
