REMARK SMILES O=S(=O)(O)c1ccc2[nH]c(-c3ccccc3)nc2c1
REMARK SMILES IDX 2 1 1 2 3 3 4 4 5 6 19 7 6 8 18 9 7 10 8 11 17 12 9 13 10 14
REMARK SMILES IDX 11 16 12 17 16 18 13 19 15 20 14 21
REMARK H PARENT 4 5 9 15
ROOT
ATOM      1  S   UNL     1      -4.861  -0.119  -1.562  1.00  0.00     0.294 S 
ATOM      2  O   UNL     1      -4.932  -1.065  -2.650  1.00  0.00    -0.194 OA
ATOM      3  O   UNL     1      -5.916   0.004  -0.578  1.00  0.00    -0.194 OA
ENDROOT
BRANCH   1   4
ATOM      4  O   UNL     1      -4.713   1.360  -2.190  1.00  0.00    -0.282 OA
ATOM      5  H   UNL     1      -5.450   1.903  -1.838  1.00  0.00     0.234 HD
ENDBRANCH   1   4
BRANCH   1   6
ATOM      6  C   UNL     1      -3.343  -0.405  -0.698  1.00  0.00     0.096 A 
ATOM      7  C   UNL     1      -2.165   0.173  -1.190  1.00  0.00     0.053 A 
ATOM      8  C   UNL     1      -3.360  -1.170   0.475  1.00  0.00     0.025 A 
ATOM      9  C   UNL     1      -0.986  -0.046  -0.470  1.00  0.00     0.090 A 
ATOM     10  C   UNL     1      -2.183  -1.394   1.197  1.00  0.00     0.030 A 
ATOM     11  C   UNL     1      -1.020  -0.813   0.688  1.00  0.00     0.066 A 
ATOM     12  N   UNL     1       0.287   0.395  -0.723  1.00  0.00    -0.228 NA
ATOM     13  N   UNL     1       0.282  -0.821   1.119  1.00  0.00    -0.338 N 
ATOM     14  C   UNL     1       1.050  -0.079   0.248  1.00  0.00     0.138 A 
ATOM     15  H   UNL     1       0.622  -1.303   1.936  1.00  0.00     0.168 HD
BRANCH  14  16
ATOM     16  C   UNL     1       2.496   0.136   0.386  1.00  0.00     0.017 A 
ATOM     17  C   UNL     1       3.187   0.800  -0.640  1.00  0.00     0.012 A 
ATOM     18  C   UNL     1       3.225  -0.291   1.506  1.00  0.00     0.012 A 
ATOM     19  C   UNL     1       4.563   1.027  -0.556  1.00  0.00     0.001 A 
ATOM     20  C   UNL     1       4.603  -0.064   1.591  1.00  0.00     0.001 A 
ATOM     21  C   UNL     1       5.271   0.593   0.561  1.00  0.00     0.000 A 
ENDBRANCH  14  16
ENDBRANCH   1   6
TORSDOF 3
