REMARK SMILES CN1CCN(c2ccc(C(=O)Nc3n[nH]c4ccc(Cc5cc(F)cc(F)c5)cc34)c(NC3CCOCC3)c2)CC1
REMARK SMILES IDX 13 1 14 2 15 3 16 4 17 5 18 6 19 7 29 8 30 9 12 11 10 12
REMARK SMILES IDX 11 13 9 15 6 16 39 17 7 18 31 19 8 20 5 21 2 22 3 23 41 24
REMARK SMILES IDX 4 25 40 26 1 27 32 28 33 30 34 31 38 32 35 33 37 34 36 35
REMARK SMILES IDX 20 36 21 37 22 38 28 39 23 40 26 41 25 42 24 43 27 44
REMARK H PARENT 15 10 12 14 32 29
ROOT
ATOM      1  C   UNL     1      -2.331  -3.009   0.340  1.00  0.00     0.162 A 
ATOM      2  N   UNL     1      -2.327  -4.092   1.126  1.00  0.00    -0.156 NA
ATOM      3  N   UNL     1      -3.624  -4.338   1.352  1.00  0.00    -0.276 N 
ATOM      4  C   UNL     1      -4.479  -3.496   0.700  1.00  0.00     0.067 A 
ATOM      5  C   UNL     1      -5.876  -3.451   0.669  1.00  0.00     0.029 A 
ATOM      6  C   UNL     1      -6.469  -2.469  -0.130  1.00  0.00     0.006 A 
ATOM      7  C   UNL     1      -5.696  -1.571  -0.876  1.00  0.00    -0.043 A 
ATOM      8  C   UNL     1      -4.290  -1.638  -0.806  1.00  0.00     0.018 A 
ATOM      9  C   UNL     1      -3.660  -2.608   0.003  1.00  0.00     0.044 A 
ATOM     10  H   UNL     1      -3.864  -5.120   1.948  1.00  0.00     0.190 HD
ENDROOT
BRANCH   1  11
ATOM     11  N   UNL     1      -1.093  -2.515   0.002  1.00  0.00    -0.304 N 
ATOM     12  C   UNL     1      -0.790  -1.309  -0.572  1.00  0.00     0.258 C 
ATOM     13  O   UNL     1      -1.546  -0.410  -0.908  1.00  0.00    -0.269 OA
ATOM     14  H   UNL     1      -0.342  -3.075   0.387  1.00  0.00     0.171 HD
BRANCH  12  15
ATOM     15  C   UNL     1       0.668  -1.094  -0.728  1.00  0.00     0.063 A 
ATOM     16  C   UNL     1       3.469  -0.869  -1.022  1.00  0.00     0.039 A 
ATOM     17  C   UNL     1       2.747  -0.117  -0.064  1.00  0.00     0.052 A 
ATOM     18  C   UNL     1       2.717  -1.715  -1.848  1.00  0.00     0.027 A 
ATOM     19  C   UNL     1       1.347  -0.166   0.080  1.00  0.00     0.049 A 
ATOM     20  C   UNL     1       1.335  -1.849  -1.697  1.00  0.00     0.018 A 
BRANCH  16  21
ATOM     21  N   UNL     1       4.848  -0.785  -1.124  1.00  0.00    -0.369 N 
ATOM     22  N   UNL     1       7.850  -0.660  -1.281  1.00  0.00    -0.303 NA
ATOM     23  C   UNL     1       7.059  -1.912  -1.252  1.00  0.00     0.105 C 
ATOM     24  C   UNL     1       6.974   0.528  -1.205  1.00  0.00     0.105 C 
ATOM     25  C   UNL     1       5.645  -1.783  -1.866  1.00  0.00     0.132 C 
ATOM     26  C   UNL     1       5.610   0.317  -0.507  1.00  0.00     0.132 C 
ATOM     27  C   UNL     1       8.848  -0.666  -0.213  1.00  0.00     0.105 C 
ENDBRANCH  16  21
BRANCH  19  28
ATOM     28  N   UNL     1       0.662   0.535   1.085  1.00  0.00    -0.381 N 
ATOM     29  H   UNL     1      -0.336   0.624   0.860  1.00  0.00     0.160 HD
BRANCH  28  30
ATOM     30  C   UNL     1       1.189   1.761   1.689  1.00  0.00     0.083 C 
ATOM     31  C   UNL     1       1.075   2.945   0.726  1.00  0.00     0.053 C 
ATOM     32  C   UNL     1       0.394   2.055   2.966  1.00  0.00     0.053 C 
ATOM     33  C   UNL     1       1.480   4.229   1.437  1.00  0.00     0.162 C 
ATOM     34  C   UNL     1       0.834   3.385   3.559  1.00  0.00     0.162 C 
ATOM     35  O   UNL     1       0.689   4.435   2.607  1.00  0.00    -0.381 OA
ENDBRANCH  28  30
ENDBRANCH  19  28
ENDBRANCH  12  15
ENDBRANCH   1  11
BRANCH   7  36
ATOM     36  C   UNL     1      -6.358  -0.524  -1.741  1.00  0.00     0.071 C 
BRANCH  36  37
ATOM     37  C   UNL     1      -6.647   0.767  -1.014  1.00  0.00    -0.038 A 
ATOM     38  C   UNL     1      -7.874   0.963  -0.363  1.00  0.00     0.043 A 
ATOM     39  C   UNL     1      -5.687   1.789  -0.958  1.00  0.00     0.043 A 
ATOM     40  C   UNL     1      -8.130   2.158   0.309  1.00  0.00     0.126 A 
ATOM     41  C   UNL     1      -5.968   2.975  -0.282  1.00  0.00     0.126 A 
ATOM     42  C   UNL     1      -7.185   3.173   0.352  1.00  0.00     0.078 A 
ATOM     43  F   UNL     1      -9.309   2.326   0.922  1.00  0.00    -0.207 F 
ATOM     44  F   UNL     1      -5.045   3.946  -0.248  1.00  0.00    -0.207 F 
ENDBRANCH  36  37
ENDBRANCH   7  36
TORSDOF 7
