REMARK SMILES CNC[C@H](O)c1ccc(O)c(O)c1
REMARK SMILES IDX 4 1 3 2 2 3 1 4 5 6 6 8 7 9 13 10 8 11 11 12 9 13 12 14
REMARK SMILES IDX 10 16
REMARK H PARENT 2 5 5 7 12 15 10 17
ROOT
ATOM      1  C   UNL     1      -1.034   0.410  -0.656  1.00  0.00     0.158 C 
ENDROOT
BRANCH   1   2
ATOM      2  C   UNL     1      -1.560  -0.853   0.067  1.00  0.00     0.117 C 
BRANCH   2   3
ATOM      3  N   UNL     1      -2.949  -1.133  -0.355  1.00  0.00    -0.317 NA
ATOM      4  C   UNL     1      -3.428  -2.369   0.255  1.00  0.00     0.101 C 
ATOM      5  H   UNL     1      -3.549  -0.365  -0.048  1.00  0.00     0.122 HD
ENDBRANCH   2   3
ENDBRANCH   1   2
BRANCH   1   6
ATOM      6  O   UNL     1      -1.224   0.242  -2.067  1.00  0.00    -0.387 OA
ATOM      7  H   UNL     1      -2.047  -0.283  -2.135  1.00  0.00     0.211 HD
ENDBRANCH   1   6
BRANCH   1   8
ATOM      8  C   UNL     1       0.421   0.677  -0.336  1.00  0.00    -0.014 A 
ATOM      9  C   UNL     1       1.457   0.243  -1.184  1.00  0.00     0.010 A 
ATOM     10  C   UNL     1       0.756   1.348   0.851  1.00  0.00     0.056 A 
ATOM     11  C   UNL     1       2.798   0.478  -0.864  1.00  0.00     0.050 A 
ATOM     12  C   UNL     1       2.090   1.574   1.163  1.00  0.00     0.157 A 
ATOM     13  C   UNL     1       3.106   1.145   0.314  1.00  0.00     0.157 A 
BRANCH  12  14
ATOM     14  O   UNL     1       2.401   2.225   2.323  1.00  0.00    -0.504 OA
ATOM     15  H   UNL     1       3.377   2.274   2.318  1.00  0.00     0.293 HD
ENDBRANCH  12  14
BRANCH  13  16
ATOM     16  O   UNL     1       4.397   1.404   0.683  1.00  0.00    -0.504 OA
ATOM     17  H   UNL     1       4.981   1.067  -0.018  1.00  0.00     0.293 HD
ENDBRANCH  13  16
ENDBRANCH   1   8
TORSDOF 6
