REMARK SMILES COc1cc(C)nc(-n2nc(C)cc2OC)n1
REMARK SMILES IDX 8 1 7 2 5 3 6 4 4 5 3 6 17 7 9 8 14 9 13 10 11 11 10 12
REMARK SMILES IDX 12 13 15 14 16 15 2 16 1 17
REMARK H PARENT
ROOT
ATOM      1  C   UNL     1       0.482  -0.567  -0.042  1.00  0.00     0.257 A 
ATOM      2  N   UNL     1       0.961  -1.833   0.041  1.00  0.00    -0.216 NA
ATOM      3  C   UNL     1       2.247  -2.044  -0.300  1.00  0.00     0.047 A 
ATOM      4  C   UNL     1       2.764  -3.447  -0.205  1.00  0.00     0.067 C 
ATOM      5  C   UNL     1       3.070  -1.024  -0.721  1.00  0.00     0.092 A 
ATOM      6  C   UNL     1       2.499   0.224  -0.773  1.00  0.00     0.218 A 
ATOM      7  N   UNL     1       1.225   0.483  -0.445  1.00  0.00    -0.175 NA
ENDROOT
BRANCH   1   8
ATOM      8  N   UNL     1      -0.897  -0.343   0.324  1.00  0.00    -0.165 N 
ATOM      9  C   UNL     1      -1.602   0.866   0.318  1.00  0.00     0.219 A 
ATOM     10  C   UNL     1      -2.878   0.559   0.747  1.00  0.00     0.093 A 
ATOM     11  C   UNL     1      -2.882  -0.826   0.991  1.00  0.00     0.064 A 
ATOM     12  N   UNL     1      -1.695  -1.379   0.740  1.00  0.00    -0.167 NA
ATOM     13  C   UNL     1      -4.005  -1.668   1.469  1.00  0.00     0.069 C 
BRANCH   9  14
ATOM     14  O   UNL     1      -1.025   2.016  -0.054  1.00  0.00    -0.481 OA
ATOM     15  C   UNL     1      -1.848   3.174  -0.016  1.00  0.00     0.280 C 
ENDBRANCH   9  14
ENDBRANCH   1   8
BRANCH   6  16
ATOM     16  O   UNL     1       3.322   1.252  -1.196  1.00  0.00    -0.481 OA
ATOM     17  C   UNL     1       2.664   2.516  -1.225  1.00  0.00     0.280 C 
ENDBRANCH   6  16
TORSDOF 3
