REMARK SMILES CCCCC[C@H](O)/C=C/[C@@H]1[C@H]2C/C(=C/CCCC(=O)O)O[C@H]2C[C@H]1O
REMARK SMILES IDX 10 1 24 2 23 3 22 4 21 5 13 6 12 7 11 8 14 9 9 10 8 11 6 12
REMARK SMILES IDX 5 13 4 14 3 15 2 16 1 17 7 18 25 20 15 22 16 23 17 24 18 25
REMARK SMILES IDX 19 26 20 27
REMARK H PARENT 7 19 25 21 20 28
ROOT
ATOM      1  C   UNL     1       0.035  -1.842  -0.178  1.00  0.00     0.047 C 
ATOM      2  C   UNL     1       0.678  -2.475  -1.430  1.00  0.00     0.125 C 
ATOM      3  C   UNL     1       1.589  -1.416  -2.058  1.00  0.00     0.077 C 
ATOM      4  C   UNL     1       1.524  -0.197  -1.137  1.00  0.00     0.179 C 
ATOM      5  O   UNL     1       2.823   0.350  -0.894  1.00  0.00    -0.495 OA
ATOM      6  C   UNL     1       3.203  -0.111   0.357  1.00  0.00     0.093 C 
ATOM      7  C   UNL     1       2.217  -1.061   0.957  1.00  0.00     0.082 C 
ATOM      8  C   UNL     1       0.966  -0.685   0.189  1.00  0.00     0.047 C 
ATOM      9  C   UNL     1       4.325   0.307   0.958  1.00  0.00     0.015 C 
ENDROOT
BRANCH   1  10
ATOM     10  C   UNL     1      -1.361  -1.335  -0.480  1.00  0.00    -0.022 C 
ATOM     11  C   UNL     1      -2.450  -1.723   0.205  1.00  0.00     0.000 C 
BRANCH  11  12
ATOM     12  C   UNL     1      -3.845  -1.234  -0.066  1.00  0.00     0.137 C 
BRANCH  12  13
ATOM     13  C   UNL     1      -4.430  -0.525   1.161  1.00  0.00     0.036 C 
BRANCH  13  14
ATOM     14  C   UNL     1      -5.887  -0.071   1.000  1.00  0.00     0.003 C 
BRANCH  14  15
ATOM     15  C   UNL     1      -6.075   1.001  -0.076  1.00  0.00    -0.000 C 
BRANCH  15  16
ATOM     16  C   UNL     1      -7.525   1.476  -0.209  1.00  0.00    -0.003 C 
ATOM     17  C   UNL     1      -8.025   2.251   1.000  1.00  0.00     0.004 C 
ENDBRANCH  15  16
ENDBRANCH  14  15
ENDBRANCH  13  14
ENDBRANCH  12  13
BRANCH  12  18
ATOM     18  O   UNL     1      -4.638  -2.370  -0.383  1.00  0.00    -0.389 OA
ATOM     19  H   UNL     1      -4.167  -2.857  -1.080  1.00  0.00     0.211 HD
ENDBRANCH  12  18
ENDBRANCH  11  12
ENDBRANCH   1  10
BRANCH   2  20
ATOM     20  O   UNL     1       1.449  -3.610  -1.043  1.00  0.00    -0.392 OA
ATOM     21  H   UNL     1       1.880  -3.962  -1.842  1.00  0.00     0.210 HD
ENDBRANCH   2  20
BRANCH   9  22
ATOM     22  C   UNL     1       5.304   1.287   0.379  1.00  0.00     0.031 C 
BRANCH  22  23
ATOM     23  C   UNL     1       6.651   0.616   0.097  1.00  0.00     0.016 C 
BRANCH  23  24
ATOM     24  C   UNL     1       7.667   1.583  -0.511  1.00  0.00     0.123 C 
BRANCH  24  25
ATOM     25  C   UNL     1       8.179   2.590   0.483  1.00  0.00     0.303 C 
ATOM     26  O   UNL     1       8.045   2.574   1.694  1.00  0.00    -0.252 OA
BRANCH  25  27
ATOM     27  O   UNL     1       8.875   3.577  -0.115  1.00  0.00    -0.481 OA
ATOM     28  H   UNL     1       9.160   4.150   0.627  1.00  0.00     0.296 HD
ENDBRANCH  25  27
ENDBRANCH  24  25
ENDBRANCH  23  24
ENDBRANCH  22  23
ENDBRANCH   9  22
TORSDOF 13
