REMARK SMILES O=[N+]([O-])OC[C@H](O[N+](=O)[O-])[C@@H](CO[N+](=O)[O-])O[N+](=O)[O-]
REMARK SMILES IDX 11 1 12 2 13 3 14 4 15 5 16 6 17 7 18 8 19 9 20 10 6 11 5 12
REMARK SMILES IDX 4 13 2 14 1 15 3 16 7 17 8 18 9 19 10 20
REMARK H PARENT
ROOT
ATOM      1  C   UNL     1      -0.618   0.559   0.233  1.00  0.00     0.223 C 
ENDROOT
BRANCH   1   2
ATOM      2  C   UNL     1      -2.023  -0.031   0.486  1.00  0.00     0.242 C 
BRANCH   2   3
ATOM      3  O   UNL     1      -2.610  -0.445  -0.742  1.00  0.00    -0.311 OA
BRANCH   3   4
ATOM      4  N   UNL     1      -3.915  -0.971  -0.573  1.00  0.00     0.294 N 
ATOM      5  O   UNL     1      -4.346  -1.035   0.578  1.00  0.00    -0.109 OA
ATOM      6  O   UNL     1      -4.435  -1.300  -1.636  1.00  0.00    -0.109 OA
ENDBRANCH   3   4
ENDBRANCH   2   3
ENDBRANCH   1   2
BRANCH   1   7
ATOM      7  O   UNL     1      -0.244   1.185   1.465  1.00  0.00    -0.306 OA
BRANCH   7   8
ATOM      8  N   UNL     1       0.169   2.534   1.339  1.00  0.00     0.294 N 
ATOM      9  O   UNL     1       0.247   3.108   2.420  1.00  0.00    -0.109 OA
ATOM     10  O   UNL     1       0.429   2.931   0.205  1.00  0.00    -0.109 OA
ENDBRANCH   7   8
ENDBRANCH   1   7
BRANCH   1  11
ATOM     11  C   UNL     1       0.411  -0.547  -0.148  1.00  0.00     0.223 C 
BRANCH  11  12
ATOM     12  C   UNL     1       1.813   0.030  -0.437  1.00  0.00     0.242 C 
BRANCH  12  13
ATOM     13  O   UNL     1       2.409   0.477   0.775  1.00  0.00    -0.311 OA
BRANCH  13  14
ATOM     14  N   UNL     1       3.718   0.989   0.582  1.00  0.00     0.294 N 
ATOM     15  O   UNL     1       4.235   1.368   1.629  1.00  0.00    -0.109 OA
ATOM     16  O   UNL     1       4.154   0.992  -0.569  1.00  0.00    -0.109 OA
ENDBRANCH  13  14
ENDBRANCH  12  13
ENDBRANCH  11  12
BRANCH  11  17
ATOM     17  O   UNL     1      -0.063  -1.204  -1.330  1.00  0.00    -0.306 OA
BRANCH  17  18
ATOM     18  N   UNL     1       0.356  -2.554  -1.448  1.00  0.00     0.294 N 
ATOM     19  O   UNL     1      -0.102  -3.106  -2.443  1.00  0.00    -0.109 OA
ATOM     20  O   UNL     1       1.103  -2.984  -0.571  1.00  0.00    -0.109 OA
ENDBRANCH  17  18
ENDBRANCH  11  17
ENDBRANCH   1  11
TORSDOF 11
