REMARK SMILES C[C@@H](O)[C@H]1C(=O)N2C(C(=O)O)=C(S[C@@H]3CN[C@H](C(=O)Nc4cccc(C(=O)O)c4)C3)[C@H](C)[C@H]12
REMARK SMILES IDX 14 1 15 2 16 3 17 4 30 5 13 7 12 8 4 9 33 10 5 11 31 12 7 13
REMARK SMILES IDX 6 14 8 15 32 16 2 17 1 18 3 19 9 21 10 22 11 23 18 25 19 26
REMARK SMILES IDX 20 27 21 29 29 30 22 31 25 32 23 33 24 34 26 35 27 36 28 37
REMARK H PARENT 16 6 3 20 11 24 20 28 28 38
ROOT
ATOM      1  C   UNL     1       0.024  -4.002  -0.223  1.00  0.00     0.067 C 
ATOM      2  C   UNL     1      -0.068  -4.002   1.303  1.00  0.00     0.096 C 
ATOM      3  N   UNL     1       0.600  -2.765   1.700  1.00  0.00    -0.305 NA
ATOM      4  C   UNL     1       1.765  -2.639   0.794  1.00  0.00     0.145 C 
ATOM      5  C   UNL     1       1.186  -3.055  -0.557  1.00  0.00     0.045 C 
ATOM      6  H   UNL     1       0.935  -2.805   2.668  1.00  0.00     0.123 HD
ENDROOT
BRANCH   1   7
ATOM      7  S   UNL     1      -1.556  -3.609  -1.070  1.00  0.00    -0.123 SA
BRANCH   7   8
ATOM      8  C   UNL     1      -1.792  -1.931  -0.756  1.00  0.00     0.021 C 
ATOM      9  C   UNL     1      -3.456   1.125  -0.145  1.00  0.00     0.131 C 
ATOM     10  C   UNL     1      -2.347   0.121   0.327  1.00  0.00     0.114 C 
ATOM     11  C   UNL     1      -2.755   1.067  -1.515  1.00  0.00     0.235 C 
ATOM     12  C   UNL     1      -2.485  -1.412   0.486  1.00  0.00     0.049 C 
ATOM     13  N   UNL     1      -1.720   0.322  -1.009  1.00  0.00    -0.300 N 
ATOM     14  O   UNL     1      -3.009   1.412  -2.648  1.00  0.00    -0.274 OA
ATOM     15  C   UNL     1      -1.449  -0.912  -1.560  1.00  0.00     0.140 C 
ATOM     16  C   UNL     1      -3.941  -1.848   0.616  1.00  0.00     0.015 C 
BRANCH   9  17
ATOM     17  C   UNL     1      -3.532   2.479   0.550  1.00  0.00     0.125 C 
ATOM     18  C   UNL     1      -2.310   3.362   0.327  1.00  0.00     0.039 C 
BRANCH  17  19
ATOM     19  O   UNL     1      -4.672   3.195   0.076  1.00  0.00    -0.393 OA
ATOM     20  H   UNL     1      -5.475   2.718   0.348  1.00  0.00     0.210 HD
ENDBRANCH  17  19
ENDBRANCH   9  17
BRANCH  15  21
ATOM     21  C   UNL     1      -0.831  -0.979  -2.898  1.00  0.00     0.353 C 
ATOM     22  O   UNL     1       0.226  -0.452  -3.213  1.00  0.00    -0.245 OA
BRANCH  21  23
ATOM     23  O   UNL     1      -1.592  -1.655  -3.775  1.00  0.00    -0.477 OA
ATOM     24  H   UNL     1      -1.148  -1.520  -4.638  1.00  0.00     0.297 HD
ENDBRANCH  21  23
ENDBRANCH  15  21
ENDBRANCH   7   8
ENDBRANCH   1   7
BRANCH   4  25
ATOM     25  C   UNL     1       2.369  -1.220   0.970  1.00  0.00     0.241 C 
ATOM     26  O   UNL     1       2.639  -0.828   2.108  1.00  0.00    -0.273 OA
ATOM     27  N   UNL     1       2.580  -0.494  -0.191  1.00  0.00    -0.325 N 
ATOM     28  H   UNL     1       2.270  -0.892  -1.070  1.00  0.00     0.169 HD
BRANCH  27  29
ATOM     29  C   UNL     1       3.087   0.822  -0.306  1.00  0.00     0.042 A 
ATOM     30  C   UNL     1       3.636   1.550   0.754  1.00  0.00     0.041 A 
ATOM     31  C   UNL     1       3.025   1.414  -1.577  1.00  0.00     0.026 A 
ATOM     32  C   UNL     1       4.115   2.855   0.546  1.00  0.00     0.061 A 
ATOM     33  C   UNL     1       3.495   2.714  -1.787  1.00  0.00     0.003 A 
ATOM     34  C   UNL     1       4.039   3.435  -0.727  1.00  0.00     0.016 A 
BRANCH  32  35
ATOM     35  C   UNL     1       4.710   3.660   1.641  1.00  0.00     0.335 C 
ATOM     36  O   UNL     1       5.166   4.787   1.529  1.00  0.00    -0.246 OA
BRANCH  35  37
ATOM     37  O   UNL     1       4.713   3.020   2.825  1.00  0.00    -0.478 OA
ATOM     38  H   UNL     1       5.130   3.659   3.440  1.00  0.00     0.297 HD
ENDBRANCH  35  37
ENDBRANCH  32  35
ENDBRANCH  27  29
ENDBRANCH   4  25
TORSDOF 10
