REMARK SMILES CCC(=O)O[C@H]1[C@H](O[C@@H]2[C@@H](C)[C@H](O[C@H]3C[C@@](C)(OC)[C@@H](O)[C@H](C)O3)[C@@H](C)C(=O)O[C@H](CC)[C@@](C)(O)[C@H](O)[C@@H](C)C(=O)[C@H](C)C[C@@]2(C)O)O[C@H](C)C[C@@H]1N(C)C
REMARK SMILES IDX 10 1 11 2 12 3 25 4 26 5 27 6 28 7 29 8 30 9 31 10 32 11
REMARK SMILES IDX 33 12 34 13 35 15 13 17 14 18 15 19 24 20 16 21 22 22 20 23
REMARK SMILES IDX 17 24 23 25 18 26 19 27 21 28 9 30 8 31 7 32 48 33 6 34
REMARK SMILES IDX 49 35 52 36 51 37 50 38 5 39 3 40 4 41 2 42 1 43 53 44 54 45
REMARK SMILES IDX 55 46 45 47 46 48 47 49 44 51 42 52 43 53 40 54 41 55 38 56
REMARK SMILES IDX 39 57 36 58 37 60
REMARK H PARENT 35 16 21 29 47 50 37 61
REMARK Flexibility Score:   73.900
ROOT
ATOM      1  C   UNL     1       0.261   1.185  -1.124  1.00  0.00     0.048 C 
ATOM      2  C   UNL     1       1.096   0.984  -2.391  1.00  0.00     0.013 C 
ENDROOT
BRANCH   1   3
ATOM      3  C   UNL     1      -1.003   0.255  -1.074  1.00  0.00     0.141 C 
BRANCH   3   4
ATOM      4  C   UNL     1      -2.092   0.732  -2.075  1.00  0.00     0.125 C 
ATOM      5  C   UNL     1      -2.212  -0.094  -3.359  1.00  0.00     0.023 C 
BRANCH   4   6
ATOM      6  C   UNL     1      -3.432   0.756  -1.359  1.00  0.00     0.311 C 
ATOM      7  O   UNL     1      -4.227  -0.171  -1.316  1.00  0.00    -0.252 OA
BRANCH   6   8
ATOM      8  O   UNL     1      -3.606   1.960  -0.740  1.00  0.00    -0.459 OA
BRANCH   8   9
ATOM      9  C   UNL     1      -4.855   2.147  -0.030  1.00  0.00     0.210 C 
BRANCH   9  10
ATOM     10  C   UNL     1      -6.051   2.298  -1.008  1.00  0.00     0.045 C 
ATOM     11  C   UNL     1      -5.783   3.048  -2.308  1.00  0.00     0.008 C 
ENDBRANCH   9  10
BRANCH   9  12
ATOM     12  C   UNL     1      -4.682   3.310   1.019  1.00  0.00     0.125 CG0
ATOM     13  C   UNL     1      -4.254   4.614   0.343  1.00  0.00     0.049 C 
ATOM     14  G   UNL     1      -3.688   2.831   2.147  1.00  0.00     0.000 G0
BRANCH  12  15
ATOM     15  O   UNL     1      -5.943   3.592   1.668  1.00  0.00    -0.384 OA
ATOM     16  H   UNL     1      -6.379   2.734   1.821  1.00  0.00     0.211 HD
ENDBRANCH  12  15
ENDBRANCH   9  12
ENDBRANCH   8   9
ENDBRANCH   6   8
ENDBRANCH   4   6
ENDBRANCH   3   4
BRANCH   3  17
ATOM     17  O   UNL     1      -0.612  -1.086  -1.384  1.00  0.00    -0.348 OA
BRANCH  17  18
ATOM     18  C   UNL     1      -0.742  -2.038  -0.338  1.00  0.00     0.253 C 
ATOM     19  C   UNL     1      -2.187  -2.502  -0.152  1.00  0.00     0.100 C 
ATOM     20  O   UNL     1       0.148  -3.131  -0.598  1.00  0.00    -0.347 OA
ATOM     21  C   UNL     1      -2.268  -3.988   0.226  1.00  0.00     0.098 C 
ATOM     22  C   UNL     1      -0.386  -4.078  -1.523  1.00  0.00     0.150 C 
ATOM     23  C   UNL     1      -1.627  -4.791  -0.939  1.00  0.00     0.175 C 
ATOM     24  C   UNL     1      -1.572  -4.255   1.578  1.00  0.00     0.045 C 
ATOM     25  C   UNL     1       0.719  -5.079  -1.846  1.00  0.00     0.041 C 
BRANCH  21  26
ATOM     26  O   UNL     1      -3.682  -4.291   0.310  1.00  0.00    -0.376 OA
ATOM     27  C   UNL     1      -4.030  -5.579   0.809  1.00  0.00     0.195 C 
ENDBRANCH  21  26
BRANCH  23  28
ATOM     28  O   UNL     1      -2.574  -4.945  -2.015  1.00  0.00    -0.387 OA
ATOM     29  H   UNL     1      -3.449  -4.756  -1.625  1.00  0.00     0.211 HD
ENDBRANCH  23  28
ENDBRANCH  17  18
ENDBRANCH   3  17
ENDBRANCH   1   3
BRANCH   1  30
ATOM     30  C   UNL     1       1.096   1.059   0.195  1.00  0.00     0.158 C 
BRANCH  30  31
ATOM     31  O   UNL     1       2.457   0.653  -0.042  1.00  0.00    -0.342 OA
BRANCH  31  32
ATOM     32  C   UNL     1       2.701  -0.755   0.084  1.00  0.00     0.293 C 
ATOM     33  O   UNL     1       2.471  -1.141   1.437  1.00  0.00    -0.346 OA
ATOM     34  C   UNL     1       4.160  -1.038  -0.327  1.00  0.00     0.249 C 
ATOM     35  C   UNL     1       3.002  -2.412   1.816  1.00  0.00     0.120 C 
ATOM     36  C   UNL     1       4.404  -2.579  -0.352  1.00  0.00     0.105 C 
ATOM     37  C   UNL     1       3.446  -3.282   0.642  1.00  0.00     0.055 C 
ATOM     38  C   UNL     1       4.107  -2.210   2.849  1.00  0.00     0.039 C 
BRANCH  34  39
ATOM     39  O   UNL     1       4.392  -0.520  -1.662  1.00  0.00    -0.455 OA
BRANCH  39  40
ATOM     40  C   UNL     1       4.986   0.702  -1.730  1.00  0.00     0.306 C 
ATOM     41  O   UNL     1       5.425   1.334  -0.779  1.00  0.00    -0.252 OA
BRANCH  40  42
ATOM     42  C   UNL     1       5.015   1.167  -3.168  1.00  0.00     0.119 C 
ATOM     43  C   UNL     1       6.068   2.240  -3.399  1.00  0.00     0.016 C 
ENDBRANCH  40  42
ENDBRANCH  39  40
ENDBRANCH  34  39
BRANCH  36  44
ATOM     44  N   UNL     1       5.816  -3.036  -0.128  1.00  0.00    -0.303 NA
ATOM     45  C   UNL     1       6.017  -4.386  -0.685  1.00  0.00     0.105 C 
ATOM     46  C   UNL     1       6.824  -2.148  -0.715  1.00  0.00     0.105 C 
ENDBRANCH  36  44
ENDBRANCH  31  32
ENDBRANCH  30  31
BRANCH  30  47
ATOM     47  C   UNL     1       1.196   2.402   1.027  1.00  0.00     0.089 C 
ATOM     48  C   UNL     1       2.159   3.396   0.359  1.00  0.00     0.045 C 
BRANCH  47  49
ATOM     49  O   UNL     1       1.754   2.034   2.301  1.00  0.00    -0.387 OA
ATOM     50  H   UNL     1       2.483   1.407   2.108  1.00  0.00     0.211 HD
ENDBRANCH  47  49
BRANCH  47  51
ATOM     51  C   UNL     1      -0.193   3.045   1.265  1.00  0.00     0.049 C 
BRANCH  51  52
ATOM     52  C   UNL     1      -0.467   3.772   2.597  1.00  0.00     0.056 C 
ATOM     53  C   UNL     1       0.592   4.801   3.006  1.00  0.00     0.016 C 
BRANCH  52  54
ATOM     54  C   UNL     1      -1.809   4.517   2.487  1.00  0.00     0.141 C 
ATOM     55  O   UNL     1      -1.870   5.586   1.870  1.00  0.00    -0.299 OA
BRANCH  54  56
ATOM     56  C   UNL     1      -3.089   3.915   3.077  1.00  0.00     0.085 C 
ATOM     57  C   UNL     1      -2.832   3.448   4.513  1.00  0.00     0.019 C 
BRANCH  56  58
ATOM     58  C   UNL     1      -3.688   2.831   2.147  1.00  0.00     0.159 CG0
ATOM     59  G   UNL     1      -4.682   3.310   1.019  1.00  0.00     0.000 G0
BRANCH  58  60
ATOM     60  O   UNL     1      -4.393   1.852   2.944  1.00  0.00    -0.389 OA
ATOM     61  H   UNL     1      -5.084   2.342   3.431  1.00  0.00     0.211 HD
ENDBRANCH  58  60
ENDBRANCH  56  58
ENDBRANCH  54  56
ENDBRANCH  52  54
ENDBRANCH  51  52
ENDBRANCH  47  51
ENDBRANCH  30  47
ENDBRANCH   1  30
TORSDOF 14
