REMARK SMILES C[C@]12CC[C@@H]3c4ccc(OC(=O)N(CCCl)CCCl)cc4CC[C@H]3[C@@H]1CC[C@@H]2OP(=O)(O)O
REMARK SMILES IDX 1 1 2 2 3 3 4 4 5 5 24 6 23 7 22 8 21 9 6 10 7 11 8 12 9 13
REMARK SMILES IDX 20 14 25 15 26 16 27 17 28 18 29 19 30 20 31 21 32 22 33 24
REMARK SMILES IDX 10 26 11 27 12 28 13 29 14 30 15 31 16 32 17 33 18 34 19 35
REMARK H PARENT 32 23 33 25
ROOT
ATOM      1  C   UNL     1      -3.902  -0.928   1.478  1.00  0.00     0.014 C 
ATOM      2  C   UNL     1      -3.993  -0.196   0.113  1.00  0.00    -0.002 C 
ATOM      3  C   UNL     1      -3.380  -1.081  -0.978  1.00  0.00     0.010 C 
ATOM      4  C   UNL     1      -1.854  -1.203  -0.821  1.00  0.00     0.009 C 
ATOM      5  C   UNL     1      -1.126   0.163  -0.695  1.00  0.00     0.023 C 
ATOM      6  C   UNL     1      -1.800   1.069   0.379  1.00  0.00     0.000 C 
ATOM      7  C   UNL     1      -1.099   2.429   0.390  1.00  0.00     0.009 C 
ATOM      8  C   UNL     1       0.345   2.264   0.857  1.00  0.00     0.036 C 
ATOM      9  C   UNL     1       1.065   1.093   0.233  1.00  0.00    -0.041 A 
ATOM     10  C   UNL     1       0.382   0.071  -0.464  1.00  0.00    -0.041 A 
ATOM     11  C   UNL     1       1.133  -0.991  -1.000  1.00  0.00     0.008 A 
ATOM     12  C   UNL     1       2.514  -1.072  -0.813  1.00  0.00     0.047 A 
ATOM     13  C   UNL     1       3.168  -0.065  -0.117  1.00  0.00     0.133 A 
ATOM     14  C   UNL     1       2.456   1.005   0.417  1.00  0.00     0.051 A 
ATOM     15  C   UNL     1      -3.292   1.176   0.068  1.00  0.00     0.001 C 
ATOM     16  C   UNL     1      -4.178   2.053   0.947  1.00  0.00     0.007 C 
ATOM     17  C   UNL     1      -5.601   1.531   0.679  1.00  0.00     0.033 C 
ATOM     18  C   UNL     1      -5.443   0.249  -0.162  1.00  0.00     0.137 C 
ENDROOT
BRANCH  18  19
ATOM     19  O   UNL     1      -6.388  -0.725   0.226  1.00  0.00    -0.283 OA
BRANCH  19  20
ATOM     20  P   UNL     1      -7.516  -1.139  -0.825  1.00  0.00     0.469 P 
ATOM     21  O   UNL     1      -7.056  -1.551  -2.179  1.00  0.00    -0.228 OA
BRANCH  20  22
ATOM     22  O   UNL     1      -8.402  -2.200  -0.033  1.00  0.00    -0.303 OA
ATOM     23  H   UNL     1      -8.640  -1.851   0.843  1.00  0.00     0.223 HD
ENDBRANCH  20  22
BRANCH  20  24
ATOM     24  O   UNL     1      -8.509   0.110  -0.869  1.00  0.00    -0.303 OA
ATOM     25  H   UNL     1      -9.007   0.102  -1.708  1.00  0.00     0.223 HD
ENDBRANCH  20  24
ENDBRANCH  19  20
ENDBRANCH  18  19
BRANCH  13  26
ATOM     26  O   UNL     1       4.542  -0.124   0.175  1.00  0.00    -0.410 OA
BRANCH  26  27
ATOM     27  C   UNL     1       5.441  -0.457  -0.836  1.00  0.00     0.415 C 
ATOM     28  O   UNL     1       5.145  -0.575  -2.019  1.00  0.00    -0.224 OA
ATOM     29  N   UNL     1       6.736  -0.619  -0.350  1.00  0.00    -0.305 N 
BRANCH  29  30
ATOM     30  C   UNL     1       7.075  -0.401   1.060  1.00  0.00     0.139 C 
BRANCH  30  31
ATOM     31  C   UNL     1       7.238   1.082   1.391  1.00  0.00     0.131 C 
ATOM     32  Cl  UNL     1       7.753   1.288   3.082  1.00  0.00    -0.125 Cl
ENDBRANCH  30  31
ENDBRANCH  29  30
BRANCH  29  33
ATOM     33  C   UNL     1       7.802  -1.006  -1.276  1.00  0.00     0.139 C 
BRANCH  33  34
ATOM     34  C   UNL     1       8.239  -2.470  -1.149  1.00  0.00     0.131 C 
ATOM     35  Cl  UNL     1       6.921  -3.610  -1.517  1.00  0.00    -0.125 Cl
ENDBRANCH  33  34
ENDBRANCH  29  33
ENDBRANCH  26  27
ENDBRANCH  13  26
TORSDOF 10
