REMARK SMILES CCCCCCC(=O)O[C@H]1CC[C@H]2[C@@H]3CCc4cc(O)ccc4[C@H]3CC[C@]12C
REMARK SMILES IDX 6 1 5 2 4 3 3 4 2 5 1 6 7 7 8 8 9 9 10 10 11 11 27 12 12 13
REMARK SMILES IDX 26 14 13 15 25 16 14 17 24 18 15 19 23 20 16 21 17 22 22 23
REMARK SMILES IDX 18 24 21 25 19 26 28 27 20 28
REMARK H PARENT 20 29
ROOT
ATOM      1  C   UNL     1       3.781  -1.030  -0.658  1.00  0.00     0.123 C 
ENDROOT
BRANCH   1   2
ATOM      2  C   UNL     1       4.850  -1.942  -0.059  1.00  0.00     0.012 C 
BRANCH   2   3
ATOM      3  C   UNL     1       5.601  -1.361   1.146  1.00  0.00     0.001 C 
BRANCH   3   4
ATOM      4  C   UNL     1       6.324  -0.031   0.908  1.00  0.00    -0.000 C 
BRANCH   4   5
ATOM      5  C   UNL     1       7.334  -0.022  -0.243  1.00  0.00    -0.003 C 
ATOM      6  C   UNL     1       8.459  -1.031  -0.072  1.00  0.00     0.004 C 
ENDBRANCH   4   5
ENDBRANCH   3   4
ENDBRANCH   2   3
ENDBRANCH   1   2
BRANCH   1   7
ATOM      7  C   UNL     1       2.633  -0.768   0.288  1.00  0.00     0.306 C 
ATOM      8  O   UNL     1       2.280  -1.513   1.190  1.00  0.00    -0.252 OA
BRANCH   7   9
ATOM      9  O   UNL     1       2.030   0.405  -0.048  1.00  0.00    -0.462 OA
BRANCH   9  10
ATOM     10  C   UNL     1       0.891   0.779   0.732  1.00  0.00     0.182 C 
ATOM     11  C   UNL     1       0.759   2.320   0.735  1.00  0.00     0.046 C 
ATOM     12  C   UNL     1      -0.453   0.301   0.133  1.00  0.00     0.008 C 
ATOM     13  C   UNL     1      -0.747   2.625   0.695  1.00  0.00     0.008 C 
ATOM     14  C   UNL     1      -0.858  -1.130   0.504  1.00  0.00     0.011 C 
ATOM     15  C   UNL     1      -1.407   1.260   0.867  1.00  0.00     0.002 C 
ATOM     16  C   UNL     1      -2.326  -1.409   0.149  1.00  0.00     0.009 C 
ATOM     17  C   UNL     1      -2.872   1.093   0.451  1.00  0.00     0.001 C 
ATOM     18  C   UNL     1      -3.327  -0.369   0.713  1.00  0.00     0.023 C 
ATOM     19  C   UNL     1      -3.768   2.100   1.192  1.00  0.00     0.009 C 
ATOM     20  C   UNL     1      -4.757  -0.520   0.204  1.00  0.00    -0.041 A 
ATOM     21  C   UNL     1      -5.256   1.730   1.265  1.00  0.00     0.036 C 
ATOM     22  C   UNL     1      -5.667   0.531   0.448  1.00  0.00    -0.041 A 
ATOM     23  C   UNL     1      -5.213  -1.661  -0.476  1.00  0.00     0.008 A 
ATOM     24  C   UNL     1      -6.997   0.427   0.006  1.00  0.00     0.050 A 
ATOM     25  C   UNL     1      -6.533  -1.750  -0.922  1.00  0.00     0.046 A 
ATOM     26  C   UNL     1      -7.414  -0.707  -0.679  1.00  0.00     0.115 A 
ATOM     27  C   UNL     1      -0.443   0.459  -1.408  1.00  0.00     0.015 C 
BRANCH  26  28
ATOM     28  O   UNL     1      -8.697  -0.842  -1.120  1.00  0.00    -0.508 OA
ATOM     29  H   UNL     1      -9.187  -0.038  -0.884  1.00  0.00     0.293 HD
ENDBRANCH  26  28
ENDBRANCH   9  10
ENDBRANCH   7   9
ENDBRANCH   1   7
TORSDOF 8
