REMARK SMILES CCN(CC)S(=O)(=O)c1ccc(C(=O)O)cc1
REMARK SMILES IDX 9 1 10 2 11 3 12 4 16 5 17 6 6 7 7 8 8 9 3 10 2 11 1 12 4 13
REMARK SMILES IDX 5 14 13 15 14 16 15 17
REMARK H PARENT 15 18
ROOT
ATOM      1  C   UNL     1       0.748   0.850  -0.206  1.00  0.00     0.082 A 
ATOM      2  C   UNL     1       1.144   1.150   1.101  1.00  0.00     0.022 A 
ATOM      3  C   UNL     1       2.423   0.791   1.534  1.00  0.00     0.017 A 
ATOM      4  C   UNL     1       3.312   0.150   0.659  1.00  0.00     0.060 A 
ATOM      5  C   UNL     1       2.917  -0.122  -0.658  1.00  0.00     0.017 A 
ATOM      6  C   UNL     1       1.638   0.235  -1.095  1.00  0.00     0.022 A 
ENDROOT
BRANCH   1   7
ATOM      7  S   UNL     1      -0.870   1.339  -0.779  1.00  0.00     0.243 S 
ATOM      8  O   UNL     1      -1.343   2.386   0.102  1.00  0.00    -0.207 OA
ATOM      9  O   UNL     1      -0.770   1.555  -2.208  1.00  0.00    -0.207 OA
BRANCH   7  10
ATOM     10  N   UNL     1      -1.814  -0.054  -0.511  1.00  0.00    -0.198 NA
BRANCH  10  11
ATOM     11  C   UNL     1      -1.518  -1.241  -1.348  1.00  0.00     0.099 C 
ATOM     12  C   UNL     1      -2.802  -1.973  -1.704  1.00  0.00     0.022 C 
ENDBRANCH  10  11
BRANCH  10  13
ATOM     13  C   UNL     1      -2.186  -0.355   0.894  1.00  0.00     0.099 C 
ATOM     14  C   UNL     1      -3.620   0.081   1.141  1.00  0.00     0.022 C 
ENDBRANCH  10  13
ENDBRANCH   7  10
ENDBRANCH   1   7
BRANCH   4  15
ATOM     15  C   UNL     1       4.658  -0.210   1.167  1.00  0.00     0.335 C 
ATOM     16  O   UNL     1       5.070  -0.012   2.295  1.00  0.00    -0.246 OA
BRANCH  15  17
ATOM     17  O   UNL     1       5.423  -0.808   0.238  1.00  0.00    -0.478 OA
ATOM     18  H   UNL     1       6.269  -0.979   0.703  1.00  0.00     0.297 HD
ENDBRANCH  15  17
ENDBRANCH   4  15
TORSDOF 6
