REMARK SMILES CC(=O)Nc1ccc(OCCOC(=O)c2ccccc2OC(C)=O)cc1
REMARK SMILES IDX 11 1 10 2 9 3 8 4 5 5 6 6 26 7 7 8 25 9 4 10 2 11 3 12 1 13
REMARK SMILES IDX 12 15 13 16 14 17 15 18 20 19 16 20 19 21 17 22 18 23 21 24
REMARK SMILES IDX 22 25 24 26 23 27
REMARK H PARENT 4 14
ROOT
ATOM      1  C   UNL     1      -0.914  -0.402  -2.212  1.00  0.00     0.274 C 
ENDROOT
BRANCH   1   2
ATOM      2  C   UNL     1       0.138   0.700  -2.355  1.00  0.00     0.271 C 
BRANCH   2   3
ATOM      3  O   UNL     1       0.653   1.092  -1.077  1.00  0.00    -0.490 OA
BRANCH   3   4
ATOM      4  C   UNL     1       1.746   0.442  -0.580  1.00  0.00     0.119 A 
ATOM      5  C   UNL     1       3.994  -0.709   0.681  1.00  0.00     0.041 A 
ATOM      6  C   UNL     1       3.398   0.444   1.201  1.00  0.00     0.030 A 
ATOM      7  C   UNL     1       3.451  -1.280  -0.471  1.00  0.00     0.030 A 
ATOM      8  C   UNL     1       2.283   1.011   0.575  1.00  0.00     0.048 A 
ATOM      9  C   UNL     1       2.334  -0.709  -1.098  1.00  0.00     0.048 A 
BRANCH   5  10
ATOM     10  N   UNL     1       5.114  -1.223   1.366  1.00  0.00    -0.326 N 
ATOM     11  C   UNL     1       5.860  -2.341   1.040  1.00  0.00     0.221 C 
ATOM     12  O   UNL     1       5.694  -3.087   0.081  1.00  0.00    -0.275 OA
ATOM     13  C   UNL     1       6.993  -2.572   2.008  1.00  0.00     0.114 C 
ATOM     14  H   UNL     1       5.406  -0.706   2.185  1.00  0.00     0.169 HD
ENDBRANCH   5  10
ENDBRANCH   3   4
ENDBRANCH   2   3
ENDBRANCH   1   2
BRANCH   1  15
ATOM     15  O   UNL     1      -2.047   0.053  -1.450  1.00  0.00    -0.458 OA
BRANCH  15  16
ATOM     16  C   UNL     1      -2.949   0.803  -2.125  1.00  0.00     0.342 C 
ATOM     17  O   UNL     1      -2.877   1.098  -3.309  1.00  0.00    -0.246 OA
BRANCH  16  18
ATOM     18  C   UNL     1      -4.089   1.199  -1.259  1.00  0.00     0.102 A 
ATOM     19  C   UNL     1      -4.030   1.303   0.137  1.00  0.00     0.145 A 
ATOM     20  C   UNL     1      -5.296   1.515  -1.905  1.00  0.00     0.019 A 
ATOM     21  C   UNL     1      -5.143   1.726   0.874  1.00  0.00     0.048 A 
ATOM     22  C   UNL     1      -6.415   1.916  -1.170  1.00  0.00     0.001 A 
ATOM     23  C   UNL     1      -6.337   2.023   0.218  1.00  0.00     0.004 A 
BRANCH  19  24
ATOM     24  O   UNL     1      -2.841   1.086   0.841  1.00  0.00    -0.426 OA
BRANCH  24  25
ATOM     25  C   UNL     1      -2.776  -0.176   1.420  1.00  0.00     0.308 C 
ATOM     26  O   UNL     1      -3.644  -1.039   1.400  1.00  0.00    -0.252 OA
ATOM     27  C   UNL     1      -1.450  -0.327   2.106  1.00  0.00     0.139 C 
ENDBRANCH  24  25
ENDBRANCH  19  24
ENDBRANCH  16  18
ENDBRANCH  15  16
ENDBRANCH   1  15
TORSDOF 9
