REMARK SMILES C#CC(O)(C=CCl)CC
REMARK SMILES IDX 3 1 2 2 1 3 8 4 9 5 4 6 5 8 6 9 7 10
REMARK H PARENT 4 7
ROOT
ATOM      1  C   UNL     1       0.192  -0.045   0.087  1.00  0.00     0.144 C 
ATOM      2  C   UNL     1       0.066   1.140   0.958  1.00  0.00    -0.067 C 
ATOM      3  C   UNL     1      -0.034   2.100   1.675  1.00  0.00     0.007 C 
ENDROOT
BRANCH   1   4
ATOM      4  C   UNL     1      -1.054  -0.219  -0.808  1.00  0.00     0.050 C 
ATOM      5  C   UNL     1      -2.343  -0.515  -0.042  1.00  0.00     0.008 C 
ENDBRANCH   1   4
BRANCH   1   6
ATOM      6  O   UNL     1       0.305  -1.202   0.900  1.00  0.00    -0.374 OA
ATOM      7  H   UNL     1       1.143  -1.118   1.387  1.00  0.00     0.213 HD
ENDBRANCH   1   6
BRANCH   1   8
ATOM      8  C   UNL     1       1.418   0.149  -0.781  1.00  0.00     0.033 C 
ATOM      9  C   UNL     1       2.650  -0.369  -0.697  1.00  0.00     0.079 C 
ATOM     10  Cl  UNL     1       3.234  -1.421   0.517  1.00  0.00    -0.093 Cl
ENDBRANCH   1   8
TORSDOF 3
