REMARK SMILES C#C[C@]1(O)CC[C@H]2[C@@H]3CCc4cc(OS(=O)(=O)C(C)C)ccc4[C@H]3CC[C@@]21C
REMARK SMILES IDX 14 1 15 2 16 3 17 4 18 5 19 6 20 7 13 8 12 9 21 10 11 11
REMARK SMILES IDX 22 12 23 13 10 14 24 15 9 16 25 17 8 18 26 19 7 20 27 21
REMARK SMILES IDX 6 22 3 23 5 24 2 25 28 26 1 27 4 28
REMARK H PARENT 4 29
ROOT
ATOM      1  O   UNL     1       4.497   0.698  -0.449  1.00  0.00    -0.382 OA
ENDROOT
BRANCH   1   2
ATOM      2  S   UNL     1       5.566  -0.535  -0.516  1.00  0.00     0.311 S 
ATOM      3  O   UNL     1       5.510  -1.134  -1.837  1.00  0.00    -0.187 OA
ATOM      4  O   UNL     1       5.467  -1.338   0.688  1.00  0.00    -0.187 OA
BRANCH   2   5
ATOM      5  C   UNL     1       7.065   0.461  -0.419  1.00  0.00     0.142 C 
ATOM      6  C   UNL     1       7.123   1.267   0.875  1.00  0.00     0.028 C 
ATOM      7  C   UNL     1       8.295  -0.432  -0.552  1.00  0.00     0.028 C 
ENDBRANCH   2   5
ENDBRANCH   1   2
BRANCH   1   8
ATOM      8  C   UNL     1       3.174   0.446  -0.202  1.00  0.00     0.142 A 
ATOM      9  C   UNL     1       2.443  -0.523  -0.885  1.00  0.00     0.052 A 
ATOM     10  C   UNL     1       2.551   1.246   0.750  1.00  0.00     0.048 A 
ATOM     11  C   UNL     1       1.080  -0.705  -0.603  1.00  0.00    -0.041 A 
ATOM     12  C   UNL     1       1.200   1.057   1.051  1.00  0.00     0.008 A 
ATOM     13  C   UNL     1       0.446   0.084   0.379  1.00  0.00    -0.041 A 
ATOM     14  C   UNL     1       0.318  -1.809  -1.287  1.00  0.00     0.036 C 
ATOM     15  C   UNL     1      -1.028  -0.184   0.661  1.00  0.00     0.023 C 
ATOM     16  C   UNL     1      -1.166  -1.517  -1.525  1.00  0.00     0.009 C 
ATOM     17  C   UNL     1      -1.718   0.858   1.578  1.00  0.00     0.009 C 
ATOM     18  C   UNL     1      -1.756  -0.355  -0.702  1.00  0.00     0.001 C 
ATOM     19  C   UNL     1      -3.238   0.661   1.705  1.00  0.00     0.012 C 
ATOM     20  C   UNL     1      -3.259  -0.556  -0.469  1.00  0.00     0.003 C 
ATOM     21  C   UNL     1      -3.917   0.592   0.325  1.00  0.00     0.011 C 
ATOM     22  C   UNL     1      -4.167  -0.717  -1.686  1.00  0.00     0.008 C 
ATOM     23  C   UNL     1      -5.409   0.143   0.287  1.00  0.00     0.130 C 
ATOM     24  C   UNL     1      -5.579  -0.374  -1.167  1.00  0.00     0.050 C 
ATOM     25  C   UNL     1      -5.743  -0.929   1.252  1.00  0.00    -0.071 C 
ATOM     26  C   UNL     1      -3.781   1.983  -0.362  1.00  0.00     0.016 C 
ATOM     27  C   UNL     1      -6.024  -1.799   2.033  1.00  0.00     0.007 C 
BRANCH  23  28
ATOM     28  O   UNL     1      -6.290   1.233   0.523  1.00  0.00    -0.377 OA
ATOM     29  H   UNL     1      -7.192   0.868   0.541  1.00  0.00     0.212 HD
ENDBRANCH  23  28
ENDBRANCH   1   8
TORSDOF 4
