REMARK SMILES CCC(N)C(O)c1ccc(O)c(O)c1
REMARK SMILES IDX 5 1 3 2 2 3 1 4 4 5 6 8 7 10 14 11 8 12 12 13 9 14 10 15
REMARK SMILES IDX 13 16 11 18
REMARK H PARENT 4 6 4 7 6 9 13 17 11 19
ROOT
ATOM      1  C   UNL     1      -0.645  -0.386  -0.937  1.00  0.00     0.161 C 
ENDROOT
BRANCH   1   2
ATOM      2  C   UNL     1      -1.462   0.457   0.100  1.00  0.00     0.084 C 
BRANCH   2   3
ATOM      3  C   UNL     1      -2.920   0.644  -0.374  1.00  0.00     0.018 C 
ATOM      4  C   UNL     1      -3.747   1.542   0.540  1.00  0.00     0.005 C 
ENDBRANCH   2   3
BRANCH   2   5
ATOM      5  N   UNL     1      -1.463  -0.126   1.454  1.00  0.00    -0.325 NA
ATOM      6  H   UNL     1      -0.500  -0.189   1.791  1.00  0.00     0.119 HD
ATOM      7  H   UNL     1      -1.809  -1.084   1.423  1.00  0.00     0.119 HD
ENDBRANCH   2   5
ENDBRANCH   1   2
BRANCH   1   8
ATOM      8  O   UNL     1      -0.627   0.261  -2.212  1.00  0.00    -0.387 OA
ATOM      9  H   UNL     1      -1.459   0.034  -2.661  1.00  0.00     0.211 HD
ENDBRANCH   1   8
BRANCH   1  10
ATOM     10  C   UNL     1       0.799  -0.596  -0.519  1.00  0.00    -0.014 A 
ATOM     11  C   UNL     1       1.732   0.455  -0.592  1.00  0.00     0.056 A 
ATOM     12  C   UNL     1       1.218  -1.847  -0.028  1.00  0.00     0.010 A 
ATOM     13  C   UNL     1       3.043   0.245  -0.181  1.00  0.00     0.157 A 
ATOM     14  C   UNL     1       2.537  -2.047   0.386  1.00  0.00     0.050 A 
ATOM     15  C   UNL     1       3.438  -0.997   0.306  1.00  0.00     0.157 A 
BRANCH  13  16
ATOM     16  O   UNL     1       3.985   1.235  -0.239  1.00  0.00    -0.504 OA
ATOM     17  H   UNL     1       3.569   2.017  -0.641  1.00  0.00     0.293 HD
ENDBRANCH  13  16
BRANCH  15  18
ATOM     18  O   UNL     1       4.727  -1.193   0.711  1.00  0.00    -0.504 OA
ATOM     19  H   UNL     1       5.162  -0.330   0.557  1.00  0.00     0.293 HD
ENDBRANCH  15  18
ENDBRANCH   1  10
TORSDOF 7
