REMARK SMILES CCOS(=O)(=O)c1cc(C(C)(C)C)cc2cc(C(C)(C)C)ccc12
REMARK SMILES IDX 4 1 5 2 6 3 3 4 2 5 1 6 7 7 8 8 24 9 9 10 23 11 15 12 14 13
REMARK SMILES IDX 22 14 16 15 17 16 10 17 11 18 12 19 13 20 18 21 19 22 20 23
REMARK SMILES IDX 21 24
REMARK H PARENT
ROOT
ATOM      1  S   UNL     1      -1.520   2.816  -0.591  1.00  0.00     0.297 S 
ATOM      2  O   UNL     1      -0.955   3.689   0.419  1.00  0.00    -0.194 OA
ATOM      3  O   UNL     1      -1.294   3.050  -2.004  1.00  0.00    -0.194 OA
ENDROOT
BRANCH   1   4
ATOM      4  O   UNL     1      -3.133   2.784  -0.357  1.00  0.00    -0.267 OA
BRANCH   4   5
ATOM      5  C   UNL     1      -3.847   3.987  -0.594  1.00  0.00     0.180 C 
ATOM      6  C   UNL     1      -5.310   3.745  -0.284  1.00  0.00     0.036 C 
ENDBRANCH   4   5
ENDBRANCH   1   4
BRANCH   1   7
ATOM      7  C   UNL     1      -0.954   1.164  -0.234  1.00  0.00     0.102 A 
ATOM      8  C   UNL     1      -1.908   0.207   0.160  1.00  0.00     0.027 A 
ATOM      9  C   UNL     1       0.423   0.845  -0.351  1.00  0.00     0.003 A 
ATOM     10  C   UNL     1      -1.533  -1.108   0.455  1.00  0.00    -0.041 A 
ATOM     11  C   UNL     1       1.450   1.740  -0.736  1.00  0.00     0.010 A 
ATOM     12  C   UNL     1       0.805  -0.479  -0.058  1.00  0.00    -0.016 A 
ATOM     13  C   UNL     1      -0.166  -1.422   0.335  1.00  0.00     0.013 A 
ATOM     14  C   UNL     1       2.790   1.341  -0.827  1.00  0.00     0.005 A 
ATOM     15  C   UNL     1       2.157  -0.862  -0.157  1.00  0.00     0.013 A 
ATOM     16  C   UNL     1       3.176   0.030  -0.541  1.00  0.00    -0.042 A 
BRANCH  10  17
ATOM     17  C   UNL     1      -2.539  -2.187   0.894  1.00  0.00    -0.013 C 
ATOM     18  C   UNL     1      -2.520  -3.356  -0.115  1.00  0.00     0.016 C 
ATOM     19  C   UNL     1      -2.156  -2.715   2.294  1.00  0.00     0.016 C 
ATOM     20  C   UNL     1      -3.998  -1.683   0.982  1.00  0.00     0.016 C 
ENDBRANCH  10  17
BRANCH  16  21
ATOM     21  C   UNL     1       4.635  -0.449  -0.634  1.00  0.00    -0.013 C 
ATOM     22  C   UNL     1       5.100  -0.971   0.743  1.00  0.00     0.016 C 
ATOM     23  C   UNL     1       5.628   0.655  -1.063  1.00  0.00     0.016 C 
ATOM     24  C   UNL     1       4.741  -1.587  -1.671  1.00  0.00     0.016 C 
ENDBRANCH  16  21
ENDBRANCH   1   7
TORSDOF 5
