REMARK SMILES CCNC(C)Cc1ccccc1
REMARK SMILES IDX 3 1 2 3 1 4 4 5 5 6 6 7 7 8 8 9 12 10 9 11 11 12 10 13
REMARK H PARENT 3 2
ROOT
ATOM      1  N   UNL     1       1.329   0.804  -0.179  1.00  0.00    -0.314 NA
ATOM      2  H   UNL     1       0.519   1.234   0.272  1.00  0.00     0.122 HD
ENDROOT
BRANCH   1   3
ATOM      3  C   UNL     1       2.533   1.201   0.549  1.00  0.00     0.078 C 
ATOM      4  C   UNL     1       3.827   0.742  -0.109  1.00  0.00     0.020 C 
ENDBRANCH   1   3
BRANCH   1   5
ATOM      5  C   UNL     1       1.087  -0.646  -0.278  1.00  0.00     0.054 C 
ATOM      6  C   UNL     1       0.900  -1.312   1.090  1.00  0.00     0.024 C 
BRANCH   5   7
ATOM      7  C   UNL     1      -0.115  -0.932  -1.220  1.00  0.00     0.054 C 
BRANCH   7   8
ATOM      8  C   UNL     1      -1.460  -0.401  -0.773  1.00  0.00    -0.046 A 
ATOM      9  C   UNL     1      -1.861   0.897  -1.121  1.00  0.00     0.004 A 
ATOM     10  C   UNL     1      -2.327  -1.194  -0.009  1.00  0.00     0.004 A 
ATOM     11  C   UNL     1      -3.098   1.393  -0.706  1.00  0.00     0.000 A 
ATOM     12  C   UNL     1      -3.564  -0.697   0.405  1.00  0.00     0.000 A 
ATOM     13  C   UNL     1      -3.948   0.597   0.058  1.00  0.00     0.000 A 
ENDBRANCH   7   8
ENDBRANCH   5   7
ENDBRANCH   1   5
TORSDOF 4
