REMARK SMILES CCc1cccc2c3c([nH]c12)C(CC)(CC(=O)O)OCC3
REMARK SMILES IDX 15 1 12 2 3 3 4 4 11 5 5 6 7 7 10 8 6 9 8 10 9 11 21 12
REMARK SMILES IDX 20 13 19 14 2 16 1 17 13 18 14 19 16 20 17 21 18 22
REMARK H PARENT 10 15 18 23
ROOT
ATOM      1  C   UNL     1      -2.161   1.661   0.627  1.00  0.00     0.164 C 
ENDROOT
BRANCH   1   2
ATOM      2  C   UNL     1      -1.869   0.160   0.769  1.00  0.00     0.118 C 
ATOM      3  C   UNL     1       3.030  -0.072  -0.411  1.00  0.00    -0.024 A 
ATOM      4  C   UNL     1       3.773  -0.919  -1.255  1.00  0.00     0.006 A 
ATOM      5  C   UNL     1       1.647  -0.326  -0.335  1.00  0.00     0.049 A 
ATOM      6  C   UNL     1       3.174  -1.957  -1.967  1.00  0.00     0.001 A 
ATOM      7  C   UNL     1       1.021  -1.357  -1.041  1.00  0.00     0.003 A 
ATOM      8  N   UNL     1       0.662   0.332   0.379  1.00  0.00    -0.356 N 
ATOM      9  C   UNL     1       1.800  -2.186  -1.870  1.00  0.00     0.010 A 
ATOM     10  C   UNL     1      -0.361  -1.296  -0.726  1.00  0.00    -0.014 A 
ATOM     11  C   UNL     1      -0.555  -0.254   0.156  1.00  0.00     0.052 A 
ATOM     12  C   UNL     1      -1.510  -2.111  -1.196  1.00  0.00     0.066 C 
ATOM     13  C   UNL     1      -2.678  -1.935  -0.215  1.00  0.00     0.166 C 
ATOM     14  O   UNL     1      -2.929  -0.546   0.069  1.00  0.00    -0.368 OA
ATOM     15  H   UNL     1       0.831   1.148   0.951  1.00  0.00     0.166 HD
BRANCH   3  16
ATOM     16  C   UNL     1       3.715   1.054   0.322  1.00  0.00     0.034 C 
ATOM     17  C   UNL     1       3.661   2.353  -0.467  1.00  0.00     0.009 C 
ENDBRANCH   3  16
BRANCH   2  18
ATOM     18  C   UNL     1      -1.886  -0.244   2.270  1.00  0.00     0.039 C 
ATOM     19  C   UNL     1      -3.235  -0.062   2.956  1.00  0.00     0.007 C 
ENDBRANCH   2  18
ENDBRANCH   1   2
BRANCH   1  20
ATOM     20  C   UNL     1      -1.799   2.227  -0.716  1.00  0.00     0.306 C 
ATOM     21  O   UNL     1      -0.786   2.867  -0.957  1.00  0.00    -0.252 OA
BRANCH  20  22
ATOM     22  O   UNL     1      -2.719   2.010  -1.670  1.00  0.00    -0.481 OA
ATOM     23  H   UNL     1      -2.323   2.392  -2.480  1.00  0.00     0.296 HD
ENDBRANCH  20  22
ENDBRANCH   1  20
TORSDOF 5
