REMARK SMILES C#C[C@]1(O)CC[C@H]2[C@@H]3CCC4=CC(=O)CC[C@@H]4[C@H]3C(=C)C[C@@]21CC
REMARK SMILES IDX 22 1 21 2 19 3 20 4 18 5 8 6 9 7 10 8 11 9 12 10 13 11 14 12
REMARK SMILES IDX 15 13 16 14 17 15 7 16 6 17 5 18 3 19 2 20 1 21 23 22 24 23
REMARK SMILES IDX 4 24
REMARK H PARENT 4 25
ROOT
ATOM      1  C   UNL     1      -1.956  -0.373  -0.146  1.00  0.00     0.017 C 
ATOM      2  C   UNL     1      -1.123  -1.251  -1.112  1.00  0.00     0.042 C 
ATOM      3  C   UNL     1       0.258  -1.516  -0.509  1.00  0.00    -0.073 C 
ATOM      4  C   UNL     1       0.631  -2.768  -0.198  1.00  0.00     0.008 C 
ATOM      5  C   UNL     1       1.079  -0.239  -0.257  1.00  0.00     0.025 C 
ATOM      6  C   UNL     1       0.262   0.661   0.744  1.00  0.00     0.001 C 
ATOM      7  C   UNL     1       0.980   1.979   1.084  1.00  0.00     0.009 C 
ATOM      8  C   UNL     1       2.406   1.738   1.572  1.00  0.00     0.032 C 
ATOM      9  C   UNL     1       3.142   0.977   0.507  1.00  0.00    -0.063 C 
ATOM     10  C   UNL     1       4.169   1.535  -0.155  1.00  0.00     0.046 C 
ATOM     11  C   UNL     1       4.750   0.876  -1.346  1.00  0.00     0.155 C 
ATOM     12  O   UNL     1       5.740   1.360  -1.887  1.00  0.00    -0.295 OA
ATOM     13  C   UNL     1       4.020  -0.318  -1.905  1.00  0.00     0.081 C 
ATOM     14  C   UNL     1       3.470  -1.173  -0.776  1.00  0.00     0.017 C 
ATOM     15  C   UNL     1       2.560  -0.399   0.206  1.00  0.00     0.023 C 
ATOM     16  C   UNL     1      -1.125   0.922   0.126  1.00  0.00     0.003 C 
ATOM     17  C   UNL     1      -2.105   1.837   0.851  1.00  0.00     0.008 C 
ATOM     18  C   UNL     1      -3.468   1.524   0.203  1.00  0.00     0.050 C 
ATOM     19  C   UNL     1      -3.257   0.287  -0.721  1.00  0.00     0.131 C 
ATOM     20  C   UNL     1      -3.120   0.738  -2.125  1.00  0.00    -0.071 C 
ATOM     21  C   UNL     1      -3.025   1.105  -3.265  1.00  0.00     0.007 C 
ENDROOT
BRANCH   1  22
ATOM     22  C   UNL     1      -2.274  -1.165   1.185  1.00  0.00     0.008 C 
ATOM     23  C   UNL     1      -2.871  -2.564   1.036  1.00  0.00     0.004 C 
ENDBRANCH   1  22
BRANCH  19  24
ATOM     24  O   UNL     1      -4.389  -0.565  -0.684  1.00  0.00    -0.377 OA
ATOM     25  H   UNL     1      -4.754  -0.556   0.214  1.00  0.00     0.212 HD
ENDBRANCH  19  24
TORSDOF 2
