REMARK SMILES CCc1ccc2c(c1)N(CC(C)CN(C)C)c1ccccc1S2
REMARK SMILES IDX 10 1 9 2 3 3 4 4 8 5 5 6 7 7 6 8 23 9 17 10 22 11 18 12
REMARK SMILES IDX 21 13 19 14 20 15 2 16 1 17 11 18 12 19 13 20 14 21 15 22
REMARK SMILES IDX 16 23
REMARK H PARENT
ROOT
ATOM      1  C   UNL     1       0.570   0.127   0.564  1.00  0.00     0.127 C 
ENDROOT
BRANCH   1   2
ATOM      2  N   UNL     1      -0.179   1.219  -0.116  1.00  0.00    -0.339 N 
ATOM      3  C   UNL     1      -3.369  -0.718  -0.863  1.00  0.00    -0.046 A 
ATOM      4  C   UNL     1      -4.145   0.261  -1.468  1.00  0.00     0.005 A 
ATOM      5  C   UNL     1      -2.073  -0.386  -0.424  1.00  0.00     0.031 A 
ATOM      6  C   UNL     1      -3.622   1.537  -1.635  1.00  0.00     0.018 A 
ATOM      7  C   UNL     1      -1.501   0.903  -0.572  1.00  0.00     0.056 A 
ATOM      8  C   UNL     1      -2.321   1.861  -1.198  1.00  0.00     0.036 A 
ATOM      9  S   UNL     1      -1.836   3.539  -1.503  1.00  0.00    -0.086 SA
ATOM     10  C   UNL     1       0.447   2.500  -0.218  1.00  0.00     0.055 A 
ATOM     11  C   UNL     1      -0.203   3.601  -0.814  1.00  0.00     0.036 A 
ATOM     12  C   UNL     1       1.754   2.758   0.261  1.00  0.00     0.027 A 
ATOM     13  C   UNL     1       0.422   4.863  -0.909  1.00  0.00     0.017 A 
ATOM     14  C   UNL     1       2.372   4.013   0.166  1.00  0.00     0.002 A 
ATOM     15  C   UNL     1       1.704   5.071  -0.420  1.00  0.00     0.001 A 
BRANCH   3  16
ATOM     16  C   UNL     1      -3.914  -2.108  -0.655  1.00  0.00     0.032 C 
ATOM     17  C   UNL     1      -4.485  -2.290   0.743  1.00  0.00     0.009 C 
ENDBRANCH   3  16
ENDBRANCH   1   2
BRANCH   1  18
ATOM     18  C   UNL     1       1.227  -0.860  -0.435  1.00  0.00     0.020 C 
ATOM     19  C   UNL     1       2.409  -0.247  -1.187  1.00  0.00     0.011 C 
BRANCH  18  20
ATOM     20  C   UNL     1       1.604  -2.179   0.280  1.00  0.00     0.089 C 
BRANCH  20  21
ATOM     21  N   UNL     1       2.535  -1.993   1.407  1.00  0.00    -0.309 NA
ATOM     22  C   UNL     1       3.908  -2.352   1.036  1.00  0.00     0.104 C 
ATOM     23  C   UNL     1       2.125  -2.798   2.562  1.00  0.00     0.104 C 
ENDBRANCH  20  21
ENDBRANCH  18  20
ENDBRANCH   1  18
TORSDOF 5
