REMARK SMILES C#C[C@]1(OC(C)=O)CC[C@H]2[C@@H]3CCC4=C[C@@H](OC(C)=O)CC[C@@H]4[C@H]3CC[C@@]21C
REMARK SMILES IDX 16 1 21 2 22 3 23 4 24 5 25 6 26 7 27 8 28 9 10 10 9 11 8 12
REMARK SMILES IDX 3 13 2 14 1 15 11 16 12 17 13 18 14 19 15 20 17 21 18 22
REMARK SMILES IDX 20 23 19 24 4 25 5 26 7 27 6 28
REMARK H PARENT
ROOT
ATOM      1  C   UNL     1       4.656  -0.455   0.424  1.00  0.00     0.199 C 
ATOM      2  C   UNL     1       4.177   0.998   0.381  1.00  0.00     0.050 C 
ATOM      3  C   UNL     1       2.684   1.088   0.673  1.00  0.00     0.012 C 
ATOM      4  C   UNL     1       1.840   0.297  -0.352  1.00  0.00     0.018 C 
ATOM      5  C   UNL     1       0.396   0.060   0.179  1.00  0.00    -0.001 C 
ATOM      6  C   UNL     1      -0.331   1.380   0.524  1.00  0.00     0.005 C 
ATOM      7  C   UNL     1      -1.794   1.184   0.960  1.00  0.00     0.012 C 
ATOM      8  C   UNL     1      -2.606   0.346  -0.048  1.00  0.00     0.022 C 
ATOM      9  C   UNL     1      -2.767   1.175  -1.355  1.00  0.00     0.017 C 
ATOM     10  C   UNL     1      -1.844  -0.989  -0.255  1.00  0.00     0.003 C 
ATOM     11  C   UNL     1      -2.821  -1.847  -1.049  1.00  0.00     0.010 C 
ATOM     12  C   UNL     1      -4.210  -1.414  -0.554  1.00  0.00     0.063 C 
ATOM     13  C   UNL     1      -4.009  -0.193   0.404  1.00  0.00     0.177 C 
ATOM     14  C   UNL     1      -4.064  -0.696   1.799  1.00  0.00    -0.058 C 
ATOM     15  C   UNL     1      -4.117  -1.104   2.929  1.00  0.00     0.008 C 
ATOM     16  C   UNL     1      -0.431  -0.803  -0.816  1.00  0.00    -0.003 C 
ATOM     17  C   UNL     1       0.273  -2.147  -1.058  1.00  0.00     0.008 C 
ATOM     18  C   UNL     1       1.677  -1.935  -1.617  1.00  0.00     0.031 C 
ATOM     19  C   UNL     1       2.496  -1.021  -0.744  1.00  0.00    -0.067 C 
ATOM     20  C   UNL     1       3.745  -1.354  -0.365  1.00  0.00     0.017 C 
ENDROOT
BRANCH   1  21
ATOM     21  O   UNL     1       5.957  -0.548  -0.181  1.00  0.00    -0.458 OA
BRANCH  21  22
ATOM     22  C   UNL     1       7.003  -0.218   0.622  1.00  0.00     0.303 C 
ATOM     23  O   UNL     1       6.925   0.138   1.789  1.00  0.00    -0.253 OA
ATOM     24  C   UNL     1       8.288  -0.352  -0.136  1.00  0.00     0.139 C 
ENDBRANCH  21  22
ENDBRANCH   1  21
BRANCH  13  25
ATOM     25  O   UNL     1      -5.118   0.694   0.135  1.00  0.00    -0.445 OA
BRANCH  25  26
ATOM     26  C   UNL     1      -5.297   1.811   0.884  1.00  0.00     0.304 C 
ATOM     27  O   UNL     1      -4.587   2.200   1.798  1.00  0.00    -0.253 OA
ATOM     28  C   UNL     1      -6.522   2.535   0.414  1.00  0.00     0.139 C 
ENDBRANCH  25  26
ENDBRANCH  13  25
TORSDOF 4
