REMARK SMILES C=C1C[C@@H]2[C@H](CC[C@]3(C)C(=O)CC[C@@H]23)[C@@]2(C)C=CC(=O)C=C12
REMARK SMILES IDX 9 1 8 2 7 3 6 4 5 5 4 6 3 7 2 8 1 9 22 10 21 11 19 12 20 13
REMARK SMILES IDX 18 14 17 15 15 16 16 17 14 18 13 19 12 20 10 21 11 22
REMARK H PARENT
ROOT
ATOM      1  C   UNL     1      -2.842  -1.099   1.288  1.00  0.00     0.020 C 
ATOM      2  C   UNL     1      -2.501  -0.746  -0.172  1.00  0.00     0.029 C 
ATOM      3  C   UNL     1      -1.697  -1.857  -0.838  1.00  0.00     0.015 C 
ATOM      4  C   UNL     1      -0.272  -1.934  -0.256  1.00  0.00     0.006 C 
ATOM      5  C   UNL     1       0.487  -0.576  -0.265  1.00  0.00     0.007 C 
ATOM      6  C   UNL     1      -0.391   0.581   0.333  1.00  0.00     0.002 C 
ATOM      7  C   UNL     1       0.324   1.935   0.199  1.00  0.00     0.039 C 
ATOM      8  C   UNL     1       1.711   1.884   0.785  1.00  0.00    -0.051 C 
ATOM      9  C   UNL     1       2.146   2.764   1.700  1.00  0.00     0.013 C 
ATOM     10  C   UNL     1       2.538   0.788   0.292  1.00  0.00    -0.031 C 
ATOM     11  C   UNL     1       3.729   1.041  -0.278  1.00  0.00     0.056 C 
ATOM     12  C   UNL     1       4.546  -0.033  -0.874  1.00  0.00     0.178 C 
ATOM     13  O   UNL     1       5.645   0.198  -1.363  1.00  0.00    -0.290 OA
ATOM     14  C   UNL     1       3.982  -1.396  -0.874  1.00  0.00     0.048 C 
ATOM     15  C   UNL     1       2.795  -1.652  -0.307  1.00  0.00    -0.011 C 
ATOM     16  C   UNL     1       1.919  -0.618   0.392  1.00  0.00     0.014 C 
ATOM     17  C   UNL     1       1.874  -1.034   1.881  1.00  0.00     0.021 C 
ATOM     18  C   UNL     1      -1.742   0.579  -0.388  1.00  0.00     0.006 C 
ATOM     19  C   UNL     1      -2.775   1.656  -0.074  1.00  0.00     0.013 C 
ATOM     20  C   UNL     1      -4.030   1.142  -0.796  1.00  0.00     0.076 C 
ATOM     21  C   UNL     1      -3.809  -0.360  -0.839  1.00  0.00     0.139 C 
ATOM     22  O   UNL     1      -4.602  -1.154  -1.327  1.00  0.00    -0.299 OA
ENDROOT
TORSDOF 0
