REMARK SMILES CC(=O)OCC(CCn1cnc2cnc(N)nc21)COC(C)=O
REMARK SMILES IDX 6 1 5 2 4 3 2 4 3 5 1 6 7 7 8 8 9 9 10 10 18 11 11 12 12 13
REMARK SMILES IDX 17 14 13 15 15 16 14 17 16 18 19 21 20 22 21 23 23 24 22 25
REMARK H PARENT 16 19 16 20
ROOT
ATOM      1  C   UNL     1      -1.278   0.774   0.910  1.00  0.00     0.066 C 
ENDROOT
BRANCH   1   2
ATOM      2  C   UNL     1      -1.539   1.497  -0.419  1.00  0.00     0.240 C 
BRANCH   2   3
ATOM      3  O   UNL     1      -2.764   2.249  -0.367  1.00  0.00    -0.465 OA
BRANCH   3   4
ATOM      4  C   UNL     1      -2.667   3.504   0.152  1.00  0.00     0.302 C 
ATOM      5  O   UNL     1      -1.648   4.010   0.600  1.00  0.00    -0.253 OA
ATOM      6  C   UNL     1      -4.003   4.180   0.111  1.00  0.00     0.139 C 
ENDBRANCH   3   4
ENDBRANCH   2   3
ENDBRANCH   1   2
BRANCH   1   7
ATOM      7  C   UNL     1       0.113   0.108   0.962  1.00  0.00     0.032 C 
BRANCH   7   8
ATOM      8  C   UNL     1       0.524  -0.706  -0.265  1.00  0.00     0.126 C 
BRANCH   8   9
ATOM      9  N   UNL     1       1.790  -1.382  -0.062  1.00  0.00    -0.315 N 
ATOM     10  C   UNL     1       1.964  -2.621   0.494  1.00  0.00     0.201 A 
ATOM     11  C   UNL     1       3.022  -0.908  -0.414  1.00  0.00     0.165 A 
ATOM     12  N   UNL     1       3.233  -2.974   0.514  1.00  0.00    -0.233 NA
ATOM     13  C   UNL     1       3.902  -1.913  -0.049  1.00  0.00     0.126 A 
ATOM     14  N   UNL     1       3.322   0.269  -0.985  1.00  0.00    -0.193 NA
ATOM     15  C   UNL     1       5.242  -1.665  -0.310  1.00  0.00     0.147 A 
ATOM     16  C   UNL     1       4.639   0.399  -1.205  1.00  0.00     0.222 A 
ATOM     17  N   UNL     1       5.601  -0.489  -0.889  1.00  0.00    -0.219 NA
BRANCH  16  18
ATOM     18  N   UNL     1       5.064   1.583  -1.774  1.00  0.00    -0.368 N 
ATOM     19  H   UNL     1       6.031   1.743  -1.528  1.00  0.00     0.159 HD
ATOM     20  H   UNL     1       4.405   2.320  -1.565  1.00  0.00     0.159 HD
ENDBRANCH  16  18
ENDBRANCH   8   9
ENDBRANCH   7   8
ENDBRANCH   1   7
BRANCH   1  21
ATOM     21  C   UNL     1      -2.420  -0.189   1.282  1.00  0.00     0.240 C 
BRANCH  21  22
ATOM     22  O   UNL     1      -2.713  -1.133   0.241  1.00  0.00    -0.465 OA
BRANCH  22  23
ATOM     23  C   UNL     1      -2.412  -2.436   0.491  1.00  0.00     0.302 C 
ATOM     24  O   UNL     1      -1.768  -2.844   1.446  1.00  0.00    -0.253 OA
ATOM     25  C   UNL     1      -2.933  -3.304  -0.613  1.00  0.00     0.139 C 
ENDBRANCH  22  23
ENDBRANCH  21  22
ENDBRANCH   1  21
TORSDOF 10
