REMARK SMILES Oc1ccccc1-c1nnco1
REMARK SMILES IDX 2 1 3 2 4 3 5 4 6 5 7 6 1 7 8 9 9 10 12 11 10 12 11 13
REMARK H PARENT 1 8
ROOT
ATOM      1  C   UNL     1      -0.787   0.419   0.830  1.00  0.00     0.128 A 
ATOM      2  C   UNL     1      -2.122   0.028   0.963  1.00  0.00     0.047 A 
ATOM      3  C   UNL     1      -2.663  -0.924   0.102  1.00  0.00     0.004 A 
ATOM      4  C   UNL     1      -1.870  -1.485  -0.894  1.00  0.00     0.001 A 
ATOM      5  C   UNL     1      -0.535  -1.092  -1.026  1.00  0.00     0.018 A 
ATOM      6  C   UNL     1       0.034  -0.132  -0.168  1.00  0.00     0.081 A 
ENDROOT
BRANCH   1   7
ATOM      7  O   UNL     1      -0.369   1.361   1.733  1.00  0.00    -0.507 OA
ATOM      8  H   UNL     1       0.566   1.570   1.564  1.00  0.00     0.293 HD
ENDBRANCH   1   7
BRANCH   6   9
ATOM      9  C   UNL     1       1.434   0.226  -0.368  1.00  0.00     0.251 A 
ATOM     10  N   UNL     1       2.304  -0.214  -1.258  1.00  0.00    -0.108 NA
ATOM     11  O   UNL     1       1.984   1.165   0.474  1.00  0.00    -0.423 OA
ATOM     12  N   UNL     1       3.490   0.447  -1.015  1.00  0.00    -0.116 NA
ATOM     13  C   UNL     1       3.260   1.240   0.002  1.00  0.00     0.333 A 
ENDBRANCH   6   9
TORSDOF 2
