REMARK SMILES CCC(C(=O)OCCN1CCOC(c2ccccc2)C1C)c1ccccc1
REMARK SMILES IDX 6 1 4 2 5 3 3 4 2 5 1 6 22 7 23 8 27 9 24 10 26 11 25 12
REMARK SMILES IDX 7 13 8 14 9 15 10 16 20 17 11 18 13 19 12 20 21 21 14 22
REMARK SMILES IDX 15 23 19 24 16 25 18 26 17 27
REMARK H PARENT
ROOT
ATOM      1  O   UNL     1       2.038  -0.081   1.034  1.00  0.00    -0.464 OA
ENDROOT
BRANCH   1   2
ATOM      2  C   UNL     1       2.654  -0.164  -0.183  1.00  0.00     0.313 C 
ATOM      3  O   UNL     1       2.240   0.368  -1.204  1.00  0.00    -0.252 OA
BRANCH   2   4
ATOM      4  C   UNL     1       3.917  -1.016  -0.075  1.00  0.00     0.129 C 
BRANCH   4   5
ATOM      5  C   UNL     1       4.365  -1.580  -1.439  1.00  0.00     0.017 C 
ATOM      6  C   UNL     1       5.029  -0.587  -2.386  1.00  0.00     0.005 C 
ENDBRANCH   4   5
BRANCH   4   7
ATOM      7  C   UNL     1       5.041  -0.344   0.697  1.00  0.00    -0.034 A 
ATOM      8  C   UNL     1       5.305   1.030   0.578  1.00  0.00     0.004 A 
ATOM      9  C   UNL     1       5.864  -1.115   1.533  1.00  0.00     0.004 A 
ATOM     10  C   UNL     1       6.353   1.617   1.289  1.00  0.00     0.000 A 
ATOM     11  C   UNL     1       6.912  -0.526   2.242  1.00  0.00     0.000 A 
ATOM     12  C   UNL     1       7.155   0.840   2.121  1.00  0.00     0.000 A 
ENDBRANCH   4   7
ENDBRANCH   2   4
ENDBRANCH   1   2
BRANCH   1  13
ATOM     13  C   UNL     1       0.861   0.746   1.076  1.00  0.00     0.248 C 
BRANCH  13  14
ATOM     14  C   UNL     1      -0.366  -0.028   0.560  1.00  0.00     0.126 C 
BRANCH  14  15
ATOM     15  N   UNL     1      -1.606   0.748   0.618  1.00  0.00    -0.292 NA
ATOM     16  C   UNL     1      -1.662   1.872  -0.336  1.00  0.00     0.113 C 
ATOM     17  C   UNL     1      -2.863  -0.051   0.634  1.00  0.00     0.087 C 
ATOM     18  C   UNL     1      -2.705   1.723  -1.454  1.00  0.00     0.176 C 
ATOM     19  C   UNL     1      -4.084   0.883   0.326  1.00  0.00     0.165 C 
ATOM     20  O   UNL     1      -4.030   1.430  -1.004  1.00  0.00    -0.371 OA
ATOM     21  C   UNL     1      -2.845  -1.300  -0.271  1.00  0.00     0.028 C 
BRANCH  19  22
ATOM     22  C   UNL     1      -5.430   0.216   0.569  1.00  0.00    -0.018 A 
ATOM     23  C   UNL     1      -5.871  -0.000   1.886  1.00  0.00     0.006 A 
ATOM     24  C   UNL     1      -6.250  -0.209  -0.488  1.00  0.00     0.006 A 
ATOM     25  C   UNL     1      -7.095  -0.623   2.136  1.00  0.00     0.000 A 
ATOM     26  C   UNL     1      -7.473  -0.833  -0.236  1.00  0.00     0.000 A 
ATOM     27  C   UNL     1      -7.895  -1.041   1.075  1.00  0.00     0.000 A 
ENDBRANCH  19  22
ENDBRANCH  14  15
ENDBRANCH  13  14
ENDBRANCH   1  13
TORSDOF 8
