REMARK SMILES CC(NCCC(c1ccccc1)c1ccccc1)c1ccccc1
REMARK SMILES IDX 4 1 3 2 2 4 1 5 19 6 20 7 24 8 21 9 23 10 22 11 5 12 6 13
REMARK SMILES IDX 7 14 8 15 12 16 9 17 11 18 10 19 13 20 14 21 18 22 15 23
REMARK SMILES IDX 17 24 16 25
REMARK H PARENT 3 3
ROOT
ATOM      1  C   UNL     1       0.596   0.496   1.077  1.00  0.00     0.082 C 
ENDROOT
BRANCH   1   2
ATOM      2  N   UNL     1       1.888   0.875   0.498  1.00  0.00    -0.310 NA
ATOM      3  H   UNL     1       1.727   1.363  -0.384  1.00  0.00     0.123 HD
BRANCH   2   4
ATOM      4  C   UNL     1       2.804  -0.248   0.251  1.00  0.00     0.080 C 
ATOM      5  C   UNL     1       3.438  -0.756   1.552  1.00  0.00     0.029 C 
BRANCH   4   6
ATOM      6  C   UNL     1       3.894   0.176  -0.727  1.00  0.00    -0.031 A 
ATOM      7  C   UNL     1       4.100  -0.549  -1.911  1.00  0.00     0.005 A 
ATOM      8  C   UNL     1       4.711   1.290  -0.472  1.00  0.00     0.005 A 
ATOM      9  C   UNL     1       5.096  -0.171  -2.813  1.00  0.00     0.000 A 
ATOM     10  C   UNL     1       5.707   1.667  -1.375  1.00  0.00     0.000 A 
ATOM     11  C   UNL     1       5.899   0.936  -2.545  1.00  0.00     0.000 A 
ENDBRANCH   4   6
ENDBRANCH   2   4
ENDBRANCH   1   2
BRANCH   1  12
ATOM     12  C   UNL     1      -0.379  -0.082   0.039  1.00  0.00     0.028 C 
BRANCH  12  13
ATOM     13  C   UNL     1      -1.730  -0.507   0.670  1.00  0.00     0.050 C 
BRANCH  13  14
ATOM     14  C   UNL     1      -2.509   0.682   1.223  1.00  0.00    -0.040 A 
ATOM     15  C   UNL     1      -2.982   1.704   0.385  1.00  0.00     0.004 A 
ATOM     16  C   UNL     1      -2.767   0.772   2.601  1.00  0.00     0.004 A 
ATOM     17  C   UNL     1      -3.687   2.788   0.911  1.00  0.00     0.000 A 
ATOM     18  C   UNL     1      -3.471   1.858   3.125  1.00  0.00     0.000 A 
ATOM     19  C   UNL     1      -3.930   2.865   2.280  1.00  0.00     0.000 A 
ENDBRANCH  13  14
BRANCH  13  20
ATOM     20  C   UNL     1      -2.598  -1.374  -0.244  1.00  0.00    -0.040 A 
ATOM     21  C   UNL     1      -2.563  -1.279  -1.645  1.00  0.00     0.004 A 
ATOM     22  C   UNL     1      -3.495  -2.289   0.336  1.00  0.00     0.004 A 
ATOM     23  C   UNL     1      -3.384  -2.086  -2.437  1.00  0.00     0.000 A 
ATOM     24  C   UNL     1      -4.315  -3.094  -0.456  1.00  0.00     0.000 A 
ATOM     25  C   UNL     1      -4.257  -2.994  -1.844  1.00  0.00     0.000 A 
ENDBRANCH  13  20
ENDBRANCH  12  13
ENDBRANCH   1  12
TORSDOF 7
