REMARK SMILES Oc1ccc(C2CNCCc3c2cc(O)c(O)c3Cl)cc1
REMARK SMILES IDX 6 1 5 2 2 3 3 4 21 5 4 6 20 7 1 8 7 10 8 11 9 13 12 15 13 16
REMARK SMILES IDX 11 17 14 18 18 19 16 20 19 21 10 22 15 24 17 26
REMARK H PARENT 1 9 8 12 15 25 17 27
REMARK Flexibility Score:    8.900
ROOT
ATOM      1  C   UNL     1       0.110  -0.884   0.354  1.00  0.00     0.063 C 
ENDROOT
BRANCH   1   2
ATOM      2  C   UNL     1       1.623  -0.768   0.122  1.00  0.00    -0.039 A 
ATOM      3  C   UNL     1       4.393  -0.517  -0.230  1.00  0.00     0.115 A 
ATOM      4  C   UNL     1       3.576  -0.707  -1.338  1.00  0.00     0.046 A 
ATOM      5  C   UNL     1       3.853  -0.443   1.047  1.00  0.00     0.046 A 
ATOM      6  C   UNL     1       2.195  -0.830  -1.162  1.00  0.00     0.008 A 
ATOM      7  C   UNL     1       2.474  -0.564   1.223  1.00  0.00     0.008 A 
BRANCH   3   8
ATOM      8  O   UNL     1       5.745  -0.391  -0.357  1.00  0.00    -0.508 OA
ATOM      9  H   UNL     1       5.972  -0.439  -1.300  1.00  0.00     0.293 HD
ENDBRANCH   3   8
ENDBRANCH   1   2
BRANCH   1  10
ATOM     10  C   UNL     1      -0.514  -1.999  -0.539  1.00  0.00     0.094 C 
BRANCH  10  11
ATOM     11  N   UNL     1      -1.684  -2.690   0.026  1.00  0.00    -0.315 NA
ATOM     12  H   UNL     1      -1.917  -3.475  -0.583  1.00  0.00     0.122 HD
BRANCH  11  13
ATOM     13  C   UNL     1      -2.865  -1.837   0.160  1.00  0.00     0.086 CG0
ATOM     14  G   UNL     1      -2.706  -0.729   1.204  1.00  0.00     0.000 G0
ENDBRANCH  11  13
ENDBRANCH  10  11
ENDBRANCH   1  10
BRANCH   1  15
ATOM     15  C   UNL     1      -0.669   0.440   0.233  1.00  0.00    -0.031 A 
ATOM     16  C   UNL     1      -0.059   1.603  -0.284  1.00  0.00     0.055 A 
ATOM     17  C   UNL     1      -2.035   0.508   0.637  1.00  0.00    -0.020 A 
ATOM     18  C   UNL     1      -0.773   2.785  -0.409  1.00  0.00     0.159 A 
ATOM     19  C   UNL     1      -2.740   1.725   0.492  1.00  0.00     0.090 A 
ATOM     20  C   UNL     1      -2.102   2.853  -0.028  1.00  0.00     0.176 A 
ATOM     21  Cl  UNL     1      -4.413   1.889   0.921  1.00  0.00    -0.080 Cl
BRANCH  17  22
ATOM     22  C   UNL     1      -2.706  -0.729   1.204  1.00  0.00     0.053 CG0
ATOM     23  G   UNL     1      -2.865  -1.837   0.160  1.00  0.00     0.000 G0
ENDBRANCH  17  22
BRANCH  18  24
ATOM     24  O   UNL     1      -0.149   3.888  -0.919  1.00  0.00    -0.504 OA
ATOM     25  H   UNL     1      -0.830   4.590  -0.904  1.00  0.00     0.293 HD
ENDBRANCH  18  24
BRANCH  20  26
ATOM     26  O   UNL     1      -2.738   4.060  -0.190  1.00  0.00    -0.503 OA
ATOM     27  H   UNL     1      -3.652   3.937   0.132  1.00  0.00     0.293 HD
ENDBRANCH  20  26
ENDBRANCH   1  15
TORSDOF 4
