REMARK SMILES CCCCc1nc(C)c(CC(=S)N(C)C)c(=O)n1Cc1ccc(-c2ccccc2-c2nnn[nH]2)cc1
REMARK SMILES IDX 5 1 6 2 7 3 8 4 9 5 16 6 17 7 18 8 4 9 3 10 2 11 1 12 19 13
REMARK SMILES IDX 20 14 21 15 36 16 22 17 35 18 23 19 24 20 25 21 29 22 26 23
REMARK SMILES IDX 28 24 27 25 30 26 31 27 34 28 32 29 33 30 10 32 11 33 12 34
REMARK SMILES IDX 13 35 14 36 15 37
REMARK H PARENT 34 31
ROOT
ATOM      1  C   UNL     1       1.489   1.659   0.876  1.00  0.00     0.112 C 
ATOM      2  N   UNL     1       2.596   1.250   1.409  1.00  0.00    -0.240 NA
ATOM      3  C   UNL     1       3.390   0.379   0.713  1.00  0.00     0.048 C 
ATOM      4  C   UNL     1       4.587  -0.088   1.501  1.00  0.00     0.067 C 
ATOM      5  C   UNL     1       3.118  -0.032  -0.537  1.00  0.00     0.045 C 
ATOM      6  C   UNL     1       1.906   0.534  -1.184  1.00  0.00     0.257 C 
ATOM      7  O   UNL     1       1.697   0.318  -2.377  1.00  0.00    -0.269 OA
ATOM      8  N   UNL     1       1.077   1.305  -0.387  1.00  0.00    -0.292 N 
ENDROOT
BRANCH   1   9
ATOM      9  C   UNL     1       0.660   2.617   1.722  1.00  0.00     0.075 C 
BRANCH   9  10
ATOM     10  C   UNL     1       0.947   4.084   1.393  1.00  0.00     0.008 C 
BRANCH  10  11
ATOM     11  C   UNL     1       2.296   4.559   1.938  1.00  0.00    -0.003 C 
ATOM     12  C   UNL     1       2.514   6.039   1.661  1.00  0.00     0.004 C 
ENDBRANCH  10  11
ENDBRANCH   9  10
ENDBRANCH   1   9
BRANCH   8  13
ATOM     13  C   UNL     1      -0.188   1.740  -0.987  1.00  0.00     0.162 C 
BRANCH  13  14
ATOM     14  C   UNL     1      -1.353   0.828  -0.655  1.00  0.00    -0.028 A 
ATOM     15  C   UNL     1      -2.478   1.321   0.021  1.00  0.00     0.006 A 
ATOM     16  C   UNL     1      -1.356  -0.513  -1.062  1.00  0.00     0.006 A 
ATOM     17  C   UNL     1      -3.567   0.489   0.300  1.00  0.00     0.009 A 
ATOM     18  C   UNL     1      -2.448  -1.342  -0.787  1.00  0.00     0.009 A 
ATOM     19  C   UNL     1      -3.571  -0.853  -0.106  1.00  0.00    -0.018 A 
BRANCH  19  20
ATOM     20  C   UNL     1      -4.716  -1.735   0.183  1.00  0.00    -0.007 A 
ATOM     21  C   UNL     1      -4.543  -2.763   1.133  1.00  0.00     0.009 A 
ATOM     22  C   UNL     1      -5.982  -1.590  -0.431  1.00  0.00     0.028 A 
ATOM     23  C   UNL     1      -5.587  -3.624   1.472  1.00  0.00     0.001 A 
ATOM     24  C   UNL     1      -7.024  -2.471  -0.080  1.00  0.00     0.013 A 
ATOM     25  C   UNL     1      -6.828  -3.479   0.865  1.00  0.00     0.001 A 
BRANCH  22  26
ATOM     26  C   UNL     1      -6.245  -0.562  -1.435  1.00  0.00     0.180 A 
ATOM     27  N   UNL     1      -5.530  -0.239  -2.495  1.00  0.00    -0.109 NA
ATOM     28  N   UNL     1      -7.328   0.274  -1.413  1.00  0.00    -0.239 N 
ATOM     29  N   UNL     1      -6.196   0.790  -3.118  1.00  0.00    -0.024 NA
ATOM     30  N   UNL     1      -7.301   1.107  -2.459  1.00  0.00    -0.048 NA
ATOM     31  H   UNL     1      -8.088   0.328  -0.747  1.00  0.00     0.194 HD
ENDBRANCH  22  26
ENDBRANCH  19  20
ENDBRANCH  13  14
ENDBRANCH   8  13
BRANCH   5  32
ATOM     32  C   UNL     1       3.945  -0.987  -1.359  1.00  0.00     0.109 C 
BRANCH  32  33
ATOM     33  C   UNL     1       3.806  -2.475  -0.960  1.00  0.00     0.082 C 
ATOM     34  S   UNL     1       2.284  -3.124  -0.604  1.00  0.00    -0.065 S 
ATOM     35  N   UNL     1       4.989  -3.232  -0.953  1.00  0.00    -0.372 N 
ATOM     36  C   UNL     1       6.152  -2.872  -1.758  1.00  0.00     0.143 C 
ATOM     37  C   UNL     1       5.082  -4.536  -0.299  1.00  0.00     0.143 C 
ENDBRANCH  32  33
ENDBRANCH   5  32
TORSDOF 9
