REMARK SMILES CCCCCCCCc1ccc(CCC(N)(CO)CO)cc1
REMARK SMILES IDX 8 1 7 2 6 3 5 4 4 5 3 6 2 7 1 8 9 9 10 10 22 11 11 12 21 13
REMARK SMILES IDX 12 14 13 15 14 16 15 17 16 18 17 21 18 22 19 24 20 25
REMARK H PARENT 16 19 16 20 18 23 20 26
ROOT
ATOM      1  C   UNL     1       1.047   1.807   0.462  1.00  0.00     0.035 C 
ENDROOT
BRANCH   1   2
ATOM      2  C   UNL     1       2.360   1.060   0.724  1.00  0.00     0.005 C 
BRANCH   2   3
ATOM      3  C   UNL     1       2.843   0.256  -0.489  1.00  0.00     0.000 C 
BRANCH   3   4
ATOM      4  C   UNL     1       4.138  -0.519  -0.228  1.00  0.00     0.000 C 
BRANCH   4   5
ATOM      5  C   UNL     1       5.354   0.382  -0.002  1.00  0.00    -0.000 C 
BRANCH   5   6
ATOM      6  C   UNL     1       6.637  -0.442   0.131  1.00  0.00    -0.000 C 
BRANCH   6   7
ATOM      7  C   UNL     1       7.853   0.455   0.361  1.00  0.00    -0.003 C 
ATOM      8  C   UNL     1       9.129  -0.361   0.494  1.00  0.00     0.004 C 
ENDBRANCH   6   7
ENDBRANCH   5   6
ENDBRANCH   4   5
ENDBRANCH   3   4
ENDBRANCH   2   3
ENDBRANCH   1   2
BRANCH   1   9
ATOM      9  C   UNL     1      -0.150   0.902   0.295  1.00  0.00    -0.048 A 
ATOM     10  C   UNL     1      -0.684   0.218   1.393  1.00  0.00     0.004 A 
ATOM     11  C   UNL     1      -0.740   0.727  -0.962  1.00  0.00     0.004 A 
ATOM     12  C   UNL     1      -1.788  -0.624   1.237  1.00  0.00     0.004 A 
ATOM     13  C   UNL     1      -1.843  -0.116  -1.118  1.00  0.00     0.004 A 
ATOM     14  C   UNL     1      -2.382  -0.796  -0.020  1.00  0.00    -0.048 A 
BRANCH  14  15
ATOM     15  C   UNL     1      -3.576  -1.706  -0.188  1.00  0.00     0.037 C 
BRANCH  15  16
ATOM     16  C   UNL     1      -4.864  -1.196   0.483  1.00  0.00     0.032 C 
BRANCH  16  17
ATOM     17  C   UNL     1      -5.750  -0.207  -0.328  1.00  0.00     0.063 C 
BRANCH  17  18
ATOM     18  N   UNL     1      -4.964   0.940  -0.852  1.00  0.00    -0.321 NA
ATOM     19  H   UNL     1      -5.571   1.753  -0.956  1.00  0.00     0.119 HD
ATOM     20  H   UNL     1      -4.262   1.210  -0.159  1.00  0.00     0.119 HD
ENDBRANCH  17  18
BRANCH  17  21
ATOM     21  C   UNL     1      -6.874   0.342   0.605  1.00  0.00     0.180 C 
BRANCH  21  22
ATOM     22  O   UNL     1      -7.601  -0.709   1.233  1.00  0.00    -0.394 OA
ATOM     23  H   UNL     1      -8.349  -0.297   1.699  1.00  0.00     0.210 HD
ENDBRANCH  21  22
ENDBRANCH  17  21
BRANCH  17  24
ATOM     24  C   UNL     1      -6.413  -0.931  -1.532  1.00  0.00     0.180 C 
BRANCH  24  25
ATOM     25  O   UNL     1      -7.002   0.026  -2.420  1.00  0.00    -0.394 OA
ATOM     26  H   UNL     1      -6.258   0.616  -2.650  1.00  0.00     0.210 HD
ENDBRANCH  24  25
ENDBRANCH  17  24
ENDBRANCH  16  17
ENDBRANCH  15  16
ENDBRANCH  14  15
ENDBRANCH   1   9
TORSDOF 15
