REMARK SMILES CNc1ccc(/C=C/c2ccc(OCCOCCOCC[18F])nc2)cc1
REMARK SMILES IDX 15 1 14 2 13 3 12 4 9 5 24 6 10 7 23 8 11 9 8 10 7 11 6 12
REMARK SMILES IDX 3 13 4 14 26 15 5 16 25 17 2 18 1 19 16 21 17 22 18 23 19 24
REMARK SMILES IDX 20 25 21 26 22 27
REMARK H PARENT 2 20
ROOT
ATOM      1  C   UNL     1       3.779  -0.173   0.818  1.00  0.00     0.201 C 
ENDROOT
BRANCH   1   2
ATOM      2  C   UNL     1       3.155  -0.269   2.212  1.00  0.00     0.260 C 
BRANCH   2   3
ATOM      3  O   UNL     1       2.278  -1.393   2.322  1.00  0.00    -0.475 OA
BRANCH   3   4
ATOM      4  C   UNL     1       0.990  -1.165   1.886  1.00  0.00     0.213 A 
ATOM      5  C   UNL     1      -1.597  -0.829   1.011  1.00  0.00    -0.007 A 
ATOM      6  C   UNL     1      -0.620   0.160   0.918  1.00  0.00     0.123 A 
ATOM      7  C   UNL     1      -1.217  -2.036   1.602  1.00  0.00     0.015 A 
ATOM      8  N   UNL     1       0.662   0.018   1.334  1.00  0.00    -0.222 NA
ATOM      9  C   UNL     1       0.095  -2.211   2.040  1.00  0.00     0.069 A 
BRANCH   5  10
ATOM     10  C   UNL     1      -2.988  -0.639   0.579  1.00  0.00     0.010 C 
ATOM     11  C   UNL     1      -3.350   0.085  -0.492  1.00  0.00     0.009 C 
BRANCH  11  12
ATOM     12  C   UNL     1      -4.745   0.272  -0.915  1.00  0.00    -0.025 A 
ATOM     13  C   UNL     1      -7.416   0.698  -1.790  1.00  0.00     0.034 A 
ATOM     14  C   UNL     1      -7.001  -0.549  -1.315  1.00  0.00     0.026 A 
ATOM     15  C   UNL     1      -6.449   1.708  -1.880  1.00  0.00     0.026 A 
ATOM     16  C   UNL     1      -5.686  -0.760  -0.874  1.00  0.00     0.010 A 
ATOM     17  C   UNL     1      -5.135   1.505  -1.443  1.00  0.00     0.010 A 
BRANCH  13  18
ATOM     18  N   UNL     1      -8.692   0.948  -2.306  1.00  0.00    -0.388 N 
ATOM     19  C   UNL     1      -9.795   0.081  -1.934  1.00  0.00     0.139 C 
ATOM     20  H   UNL     1      -8.932   1.935  -2.251  1.00  0.00     0.160 HD
ENDBRANCH  13  18
ENDBRANCH  11  12
ENDBRANCH   5  10
ENDBRANCH   3   4
ENDBRANCH   2   3
ENDBRANCH   1   2
BRANCH   1  21
ATOM     21  O   UNL     1       4.765   0.859   0.738  1.00  0.00    -0.376 OA
BRANCH  21  22
ATOM     22  C   UNL     1       6.052   0.447   1.203  1.00  0.00     0.188 C 
BRANCH  22  23
ATOM     23  C   UNL     1       7.056   1.593   1.030  1.00  0.00     0.188 C 
BRANCH  23  24
ATOM     24  O   UNL     1       7.255   2.032  -0.318  1.00  0.00    -0.376 OA
BRANCH  24  25
ATOM     25  C   UNL     1       7.726   1.046  -1.238  1.00  0.00     0.194 C 
BRANCH  25  26
ATOM     26  C   UNL     1       9.095   0.486  -0.880  1.00  0.00     0.243 C 
ATOM     27  F   UNL     1       8.955  -0.443   0.109  1.00  0.00    -0.249 F 
ENDBRANCH  25  26
ENDBRANCH  24  25
ENDBRANCH  23  24
ENDBRANCH  22  23
ENDBRANCH  21  22
ENDBRANCH   1  21
TORSDOF 12
