REMARK SMILES C[C@]12C=CC(=O)C=C1[C@@H](F)C[C@H]1[C@@H]3C[C@@H](O)[C@](O)(C(=O)CO)[C@@]3(C)C[C@H](Cl)[C@@]12Cl
REMARK SMILES IDX 19 1 20 2 17 3 23 4 25 5 13 6 26 7 12 8 14 9 15 10 28 11
REMARK SMILES IDX 11 12 2 13 9 14 3 15 8 16 4 17 7 18 5 19 6 20 24 21 27 22
REMARK SMILES IDX 29 23 1 24 10 25 18 26 16 28 21 30 22 31
REMARK H PARENT 18 27 16 29 22 32
ROOT
ATOM      1  C   UNL     1       4.296   0.090   0.100  1.00  0.00     0.192 C 
ATOM      2  O   UNL     1       4.868  -0.488   1.031  1.00  0.00    -0.294 OA
ENDROOT
BRANCH   1   3
ATOM      3  C   UNL     1       2.990  -0.429  -0.522  1.00  0.00     0.156 C 
ATOM      4  C   UNL     1       1.686   0.079   0.173  1.00  0.00     0.011 C 
ATOM      5  C   UNL     1       1.192   1.481  -0.257  1.00  0.00     0.032 C 
ATOM      6  C   UNL     1       0.685  -0.963  -0.386  1.00  0.00     0.006 C 
ATOM      7  C   UNL     1      -0.286   1.800   0.115  1.00  0.00     0.104 C 
ATOM      8  C   UNL     1      -0.758  -0.768   0.121  1.00  0.00     0.020 C 
ATOM      9  C   UNL     1       1.386  -2.302  -0.148  1.00  0.00     0.040 C 
ATOM     10  C   UNL     1       2.879  -1.988  -0.397  1.00  0.00     0.154 C 
ATOM     11  C   UNL     1      -1.306   0.663  -0.274  1.00  0.00     0.077 C 
ATOM     12  C   UNL     1      -1.672  -1.906  -0.379  1.00  0.00     0.048 C 
ATOM     13  C   UNL     1      -2.832   0.836   0.201  1.00  0.00     0.031 C 
ATOM     14  C   UNL     1      -3.131  -1.721   0.022  1.00  0.00     0.194 C 
ATOM     15  C   UNL     1      -3.416   2.168  -0.268  1.00  0.00    -0.010 C 
ATOM     16  C   UNL     1      -3.645  -0.354  -0.353  1.00  0.00    -0.021 C 
ATOM     17  C   UNL     1      -4.497   2.299  -1.049  1.00  0.00     0.048 C 
ATOM     18  C   UNL     1      -4.728  -0.210  -1.138  1.00  0.00     0.055 C 
ATOM     19  C   UNL     1      -5.236   1.118  -1.537  1.00  0.00     0.178 C 
ATOM     20  O   UNL     1      -6.233   1.238  -2.237  1.00  0.00    -0.290 OA
ATOM     21  C   UNL     1       1.855  -0.010   1.713  1.00  0.00     0.015 C 
ATOM     22  Cl  UNL     1      -0.335   2.315   1.831  1.00  0.00    -0.121 Cl
ATOM     23  Cl  UNL     1      -1.345   0.738  -2.153  1.00  0.00    -0.116 Cl
ATOM     24  C   UNL     1      -3.058   0.808   1.735  1.00  0.00     0.023 C 
ATOM     25  F   UNL     1      -3.852  -2.708  -0.582  1.00  0.00    -0.243 F 
BRANCH   3  26
ATOM     26  O   UNL     1       2.969  -0.094  -1.918  1.00  0.00    -0.379 OA
ATOM     27  H   UNL     1       3.274  -0.909  -2.379  1.00  0.00     0.212 HD
ENDBRANCH   3  26
BRANCH  10  28
ATOM     28  O   UNL     1       3.311  -2.582  -1.629  1.00  0.00    -0.390 OA
ATOM     29  H   UNL     1       3.262  -3.549  -1.512  1.00  0.00     0.211 HD
ENDBRANCH  10  28
ENDBRANCH   1   3
BRANCH   1  30
ATOM     30  C   UNL     1       4.872   1.383  -0.466  1.00  0.00     0.234 C 
BRANCH  30  31
ATOM     31  O   UNL     1       5.854   1.935   0.402  1.00  0.00    -0.388 OA
ATOM     32  H   UNL     1       6.279   1.177   0.850  1.00  0.00     0.211 HD
ENDBRANCH  30  31
ENDBRANCH   1  30
TORSDOF 5
