REMARK SMILES CN1C(=O)CN=C(c2ccccc2F)c2cc(Cl)ccc21
REMARK SMILES IDX 21 1 20 2 19 3 17 4 18 5 16 6 15 7 2 8 1 9 3 10 4 11 7 13
REMARK SMILES IDX 6 14 8 15 13 16 9 17 12 18 10 19 11 20 14 21 5 22
REMARK H PARENT
REMARK Flexibility Score:   20.900
ROOT
ATOM      1  C   UNL     1      -1.798   0.098   0.103  1.00  0.00     0.053 A 
ATOM      2  C   UNL     1      -2.723   1.088   0.484  1.00  0.00     0.028 A 
ATOM      3  C   UNL     1      -2.447   2.450   0.317  1.00  0.00     0.023 A 
ATOM      4  C   UNL     1      -1.235   2.845  -0.233  1.00  0.00     0.041 A 
ATOM      5  Cl  UNL     1      -0.900   4.517  -0.457  1.00  0.00    -0.084 Cl
ATOM      6  C   UNL     1      -0.288   1.895  -0.594  1.00  0.00     0.033 A 
ATOM      7  C   UNL     1      -0.553   0.526  -0.401  1.00  0.00     0.026 A 
ENDROOT
BRANCH   1   8
ATOM      8  N   UNL     1      -2.157  -1.280   0.239  1.00  0.00    -0.313 N 
ATOM      9  C   UNL     1      -3.112  -1.665   1.270  1.00  0.00     0.153 C 
BRANCH   8  10
ATOM     10  C   UNL     1      -1.769  -2.279  -0.663  1.00  0.00     0.248 CG0
ATOM     11  O   UNL     1      -2.147  -3.449  -0.555  1.00  0.00    -0.272 OA
ATOM     12  G   UNL     1      -0.920  -1.850  -1.852  1.00  0.00     0.000 G0
ENDBRANCH   8  10
ENDBRANCH   1   8
BRANCH   7  13
ATOM     13  C   UNL     1       0.559  -0.426  -0.693  1.00  0.00     0.078 C 
ATOM     14  N   UNL     1       0.420  -1.505  -1.388  1.00  0.00    -0.274 NA
BRANCH  13  15
ATOM     15  C   UNL     1       1.927  -0.126  -0.172  1.00  0.00     0.036 A 
ATOM     16  C   UNL     1       2.128   0.443   1.088  1.00  0.00     0.132 A 
ATOM     17  C   UNL     1       3.040  -0.458  -0.956  1.00  0.00     0.013 A 
ATOM     18  C   UNL     1       3.414   0.708   1.553  1.00  0.00     0.040 A 
ATOM     19  C   UNL     1       4.331  -0.193  -0.492  1.00  0.00     0.001 A 
ATOM     20  C   UNL     1       4.518   0.394   0.760  1.00  0.00     0.003 A 
ATOM     21  F   UNL     1       1.093   0.733   1.890  1.00  0.00    -0.206 F 
ENDBRANCH  13  15
BRANCH  14  22
ATOM     22  C   UNL     1      -0.920  -1.850  -1.852  1.00  0.00     0.243 CG0
ATOM     23  G   UNL     1      -1.769  -2.279  -0.663  1.00  0.00     0.000 G0
ENDBRANCH  14  22
ENDBRANCH   7  13
TORSDOF 1
