REMARK SMILES Fc1ccc(C(c2ccc(F)cc2)N2CCN(C/C=C/c3ccccc3)CC2)cc1
REMARK SMILES IDX 14 1 15 2 16 3 17 4 27 5 28 6 6 7 5 8 2 9 3 10 30 11 4 12
REMARK SMILES IDX 29 13 1 14 7 15 8 16 13 17 9 18 12 19 10 20 11 21 18 22
REMARK SMILES IDX 19 23 20 24 21 25 22 26 26 27 23 28 25 29 24 30
REMARK H PARENT
ROOT
ATOM      1  N   UNL     1      -1.401  -0.331   0.362  1.00  0.00    -0.290 NA
ATOM      2  C   UNL     1      -0.300   0.591  -0.012  1.00  0.00     0.101 C 
ATOM      3  C   UNL     1       0.986   0.375   0.825  1.00  0.00     0.100 C 
ATOM      4  N   UNL     1       1.504  -1.009   0.842  1.00  0.00    -0.297 NA
ATOM      5  C   UNL     1       0.385  -1.911   1.176  1.00  0.00     0.100 C 
ATOM      6  C   UNL     1      -0.883  -1.720   0.312  1.00  0.00     0.101 C 
ENDROOT
BRANCH   1   7
ATOM      7  C   UNL     1      -2.584  -0.157  -0.534  1.00  0.00     0.117 C 
BRANCH   7   8
ATOM      8  C   UNL     1      -3.128   1.280  -0.562  1.00  0.00    -0.026 A 
ATOM      9  C   UNL     1      -4.166   3.878  -0.655  1.00  0.00     0.123 A 
ATOM     10  C   UNL     1      -3.960   3.180  -1.838  1.00  0.00     0.039 A 
ATOM     11  C   UNL     1      -3.867   3.305   0.574  1.00  0.00     0.039 A 
ATOM     12  C   UNL     1      -3.445   1.883  -1.794  1.00  0.00     0.009 A 
ATOM     13  C   UNL     1      -3.352   2.008   0.622  1.00  0.00     0.009 A 
ATOM     14  F   UNL     1      -4.659   5.122  -0.701  1.00  0.00    -0.207 F 
ENDBRANCH   7   8
BRANCH   7  15
ATOM     15  C   UNL     1      -3.737  -1.124  -0.224  1.00  0.00    -0.026 A 
ATOM     16  C   UNL     1      -4.194  -1.332   1.092  1.00  0.00     0.009 A 
ATOM     17  C   UNL     1      -4.385  -1.799  -1.275  1.00  0.00     0.009 A 
ATOM     18  C   UNL     1      -5.257  -2.199   1.350  1.00  0.00     0.039 A 
ATOM     19  C   UNL     1      -5.448  -2.666  -1.015  1.00  0.00     0.039 A 
ATOM     20  C   UNL     1      -5.873  -2.857   0.294  1.00  0.00     0.123 A 
ATOM     21  F   UNL     1      -6.893  -3.690   0.541  1.00  0.00    -0.207 F 
ENDBRANCH   7  15
ENDBRANCH   1   7
BRANCH   4  22
ATOM     22  C   UNL     1       2.142  -1.386  -0.425  1.00  0.00     0.112 C 
BRANCH  22  23
ATOM     23  C   UNL     1       3.530  -0.837  -0.639  1.00  0.00    -0.011 C 
ATOM     24  C   UNL     1       4.316  -0.255   0.283  1.00  0.00     0.005 C 
BRANCH  24  25
ATOM     25  C   UNL     1       5.661   0.271   0.014  1.00  0.00    -0.026 A 
ATOM     26  C   UNL     1       6.565  -0.381  -0.835  1.00  0.00     0.008 A 
ATOM     27  C   UNL     1       6.074   1.437   0.670  1.00  0.00     0.008 A 
ATOM     28  C   UNL     1       7.846   0.139  -1.044  1.00  0.00     0.001 A 
ATOM     29  C   UNL     1       7.354   1.957   0.462  1.00  0.00     0.001 A 
ATOM     30  C   UNL     1       8.239   1.309  -0.398  1.00  0.00     0.000 A 
ENDBRANCH  24  25
ENDBRANCH  22  23
ENDBRANCH   4  22
TORSDOF 6
