REMARK SMILES C[C@@H]1C[C@H]2[C@@H]3C[C@H](F)C4=CC(=O)C=C[C@]4(C)[C@H]3[C@@H](O)C[C@]2(C)[C@H]1C(=O)CO
REMARK SMILES IDX 24 1 25 2 23 3 2 4 3 5 4 6 21 7 5 8 20 9 6 10 17 11 18 12
REMARK SMILES IDX 7 13 15 14 9 15 14 16 10 17 13 18 11 19 12 20 1 21 22 22
REMARK SMILES IDX 8 23 16 24 19 25 26 27 27 28
REMARK H PARENT 19 26 27 29
ROOT
ATOM      1  C   UNL     1       4.048   0.600   0.642  1.00  0.00     0.162 C 
ATOM      2  O   UNL     1       3.986   1.804   0.926  1.00  0.00    -0.297 OA
ENDROOT
BRANCH   1   3
ATOM      3  C   UNL     1       2.848  -0.122   0.022  1.00  0.00     0.068 C 
ATOM      4  C   UNL     1       2.826  -1.677   0.135  1.00  0.00    -0.003 C 
ATOM      5  C   UNL     1       1.337  -2.076   0.301  1.00  0.00     0.008 C 
ATOM      6  C   UNL     1       0.580  -0.789   0.007  1.00  0.00    -0.000 C 
ATOM      7  C   UNL     1       1.475   0.303   0.627  1.00  0.00    -0.017 C 
ATOM      8  C   UNL     1      -0.897  -0.683   0.413  1.00  0.00     0.003 C 
ATOM      9  C   UNL     1       0.947   1.666   0.138  1.00  0.00     0.040 C 
ATOM     10  C   UNL     1      -1.705  -1.847  -0.183  1.00  0.00     0.046 C 
ATOM     11  C   UNL     1      -1.447   0.702  -0.076  1.00  0.00     0.035 C 
ATOM     12  C   UNL     1      -0.556   1.878   0.427  1.00  0.00     0.119 C 
ATOM     13  C   UNL     1      -3.201  -1.705   0.054  1.00  0.00     0.194 C 
ATOM     14  C   UNL     1      -2.997   0.855   0.180  1.00  0.00     0.016 C 
ATOM     15  C   UNL     1      -3.682  -0.368  -0.450  1.00  0.00    -0.022 C 
ATOM     16  C   UNL     1      -3.506   2.148  -0.451  1.00  0.00    -0.012 C 
ATOM     17  C   UNL     1      -4.612  -0.288  -1.420  1.00  0.00     0.055 C 
ATOM     18  C   UNL     1      -4.431   2.225  -1.419  1.00  0.00     0.048 C 
ATOM     19  C   UNL     1      -5.053   1.007  -1.974  1.00  0.00     0.178 C 
ATOM     20  O   UNL     1      -5.895   1.073  -2.862  1.00  0.00    -0.290 OA
ATOM     21  C   UNL     1       3.433  -2.347  -1.097  1.00  0.00     0.008 C 
ATOM     22  C   UNL     1       1.536   0.253   2.176  1.00  0.00     0.012 C 
ATOM     23  F   UNL     1      -3.821  -2.735  -0.593  1.00  0.00    -0.243 F 
ATOM     24  C   UNL     1      -3.391   0.919   1.673  1.00  0.00     0.021 C 
BRANCH  12  25
ATOM     25  O   UNL     1      -0.754   2.094   1.817  1.00  0.00    -0.393 OA
ATOM     26  H   UNL     1      -0.131   2.782   2.114  1.00  0.00     0.210 HD
ENDBRANCH  12  25
ENDBRANCH   1   3
BRANCH   1  27
ATOM     27  C   UNL     1       5.377  -0.140   0.779  1.00  0.00     0.231 C 
BRANCH  27  28
ATOM     28  O   UNL     1       6.362   0.676   1.400  1.00  0.00    -0.389 OA
ATOM     29  H   UNL     1       6.190   1.587   1.096  1.00  0.00     0.211 HD
ENDBRANCH  27  28
ENDBRANCH   1  27
TORSDOF 4
