REMARK SMILES C[C@]12C=CC(=O)C=C1[C@@H](F)C[C@@H]1[C@@H]2[C@@H](O)C[C@@]2(C)[C@H]1CC[C@]2(O)C(=O)CO
REMARK SMILES IDX 24 1 25 2 22 3 17 4 16 5 19 6 14 7 12 8 20 9 21 10 13 11
REMARK SMILES IDX 11 12 2 13 9 14 3 15 8 16 4 17 7 18 5 19 6 20 18 21 1 22
REMARK SMILES IDX 10 23 23 24 15 26 26 28 27 29
REMARK H PARENT 23 25 15 27 27 30
ROOT
ATOM      1  C   UNL     1       4.086   0.358  -1.435  1.00  0.00     0.190 C 
ATOM      2  O   UNL     1       4.411   0.204  -2.624  1.00  0.00    -0.294 OA
ENDROOT
BRANCH   1   3
ATOM      3  C   UNL     1       2.883  -0.445  -0.879  1.00  0.00     0.131 C 
ATOM      4  C   UNL     1       1.627   0.306  -0.335  1.00  0.00     0.009 C 
ATOM      5  C   UNL     1       0.717   0.950  -1.402  1.00  0.00     0.042 C 
ATOM      6  C   UNL     1       0.856  -0.903   0.259  1.00  0.00     0.002 C 
ATOM      7  C   UNL     1      -0.681   1.327  -0.864  1.00  0.00     0.119 C 
ATOM      8  C   UNL     1      -0.473  -0.529   0.933  1.00  0.00     0.003 C 
ATOM      9  C   UNL     1       1.924  -1.638   1.065  1.00  0.00     0.008 C 
ATOM     10  C   UNL     1       3.222  -1.453   0.245  1.00  0.00     0.044 C 
ATOM     11  C   UNL     1      -1.401   0.150  -0.135  1.00  0.00     0.035 C 
ATOM     12  C   UNL     1      -1.142  -1.775   1.535  1.00  0.00     0.046 C 
ATOM     13  C   UNL     1      -2.835   0.471   0.440  1.00  0.00     0.016 C 
ATOM     14  C   UNL     1      -2.525  -1.473   2.095  1.00  0.00     0.194 C 
ATOM     15  C   UNL     1      -3.745   0.986  -0.671  1.00  0.00    -0.012 C 
ATOM     16  C   UNL     1      -3.388  -0.831   1.041  1.00  0.00    -0.022 C 
ATOM     17  C   UNL     1      -4.887   0.408  -1.065  1.00  0.00     0.048 C 
ATOM     18  C   UNL     1      -4.537  -1.408   0.643  1.00  0.00     0.055 C 
ATOM     19  C   UNL     1      -5.371  -0.831  -0.429  1.00  0.00     0.178 C 
ATOM     20  O   UNL     1      -6.418  -1.358  -0.780  1.00  0.00    -0.290 OA
ATOM     21  C   UNL     1       2.006   1.342   0.751  1.00  0.00     0.015 C 
ATOM     22  C   UNL     1      -2.848   1.554   1.542  1.00  0.00     0.021 C 
ATOM     23  F   UNL     1      -3.060  -2.651   2.528  1.00  0.00    -0.243 F 
BRANCH   3  24
ATOM     24  O   UNL     1       2.444  -1.262  -2.005  1.00  0.00    -0.381 OA
ATOM     25  H   UNL     1       3.153  -1.220  -2.683  1.00  0.00     0.212 HD
ENDBRANCH   3  24
BRANCH   7  26
ATOM     26  O   UNL     1      -0.573   2.458  -0.011  1.00  0.00    -0.393 OA
ATOM     27  H   UNL     1      -0.164   3.179  -0.521  1.00  0.00     0.210 HD
ENDBRANCH   7  26
ENDBRANCH   1   3
BRANCH   1  28
ATOM     28  C   UNL     1       4.893   1.316  -0.569  1.00  0.00     0.234 C 
BRANCH  28  29
ATOM     29  O   UNL     1       5.448   0.767   0.603  1.00  0.00    -0.388 OA
ATOM     30  H   UNL     1       6.204   0.211   0.338  1.00  0.00     0.211 HD
ENDBRANCH  28  29
ENDBRANCH   1  28
TORSDOF 5
