REMARK SMILES O=C(Nc1cccc(C(F)(F)F)c1)c1cc(Br)cc(Br)c1O
REMARK SMILES IDX 2 1 1 2 3 3 14 5 21 6 19 7 15 8 18 9 16 10 20 11 17 12 22 13
REMARK SMILES IDX 4 15 13 16 5 17 8 18 6 19 7 20 9 21 10 22 11 23 12 24
REMARK H PARENT 3 4 22 14
ROOT
ATOM      1  C   UNL     1      -0.838   0.390   0.227  1.00  0.00     0.259 C 
ATOM      2  O   UNL     1      -0.476   1.445   0.740  1.00  0.00    -0.269 OA
ATOM      3  N   UNL     1      -0.042  -0.512  -0.455  1.00  0.00    -0.322 N 
ATOM      4  H   UNL     1      -0.508  -1.243  -0.977  1.00  0.00     0.170 HD
ENDROOT
BRANCH   1   5
ATOM      5  C   UNL     1      -2.293   0.070   0.283  1.00  0.00     0.084 A 
ATOM      6  C   UNL     1      -3.233   1.115   0.346  1.00  0.00     0.142 A 
ATOM      7  C   UNL     1      -4.601   0.821   0.374  1.00  0.00     0.061 A 
ATOM      8  C   UNL     1      -2.735  -1.261   0.303  1.00  0.00     0.033 A 
ATOM      9  C   UNL     1      -5.038  -0.505   0.366  1.00  0.00     0.035 A 
ATOM     10  C   UNL     1      -4.102  -1.536   0.340  1.00  0.00     0.020 A 
ATOM     11  Br  UNL     1      -5.912   2.192   0.433  1.00  0.00    -0.047 Br
ATOM     12  Br  UNL     1      -4.690  -3.333   0.358  1.00  0.00    -0.051 Br
BRANCH   6  13
ATOM     13  O   UNL     1      -2.845   2.431   0.377  1.00  0.00    -0.506 OA
ATOM     14  H   UNL     1      -1.882   2.472   0.572  1.00  0.00     0.293 HD
ENDBRANCH   6  13
ENDBRANCH   1   5
BRANCH   3  15
ATOM     15  C   UNL     1       1.360  -0.467  -0.607  1.00  0.00     0.042 A 
ATOM     16  C   UNL     1       2.186   0.459   0.034  1.00  0.00     0.039 A 
ATOM     17  C   UNL     1       1.943  -1.426  -1.444  1.00  0.00     0.026 A 
ATOM     18  C   UNL     1       3.581   0.440  -0.157  1.00  0.00     0.058 A 
ATOM     19  C   UNL     1       3.324  -1.452  -1.648  1.00  0.00     0.003 A 
ATOM     20  C   UNL     1       4.140  -0.521  -1.010  1.00  0.00     0.013 A 
BRANCH  18  21
ATOM     21  C   UNL     1       4.448   1.464   0.533  1.00  0.00     0.416 C 
ATOM     22  F   UNL     1       4.373   2.689  -0.055  1.00  0.00    -0.166 F 
ATOM     23  F   UNL     1       4.112   1.651   1.840  1.00  0.00    -0.166 F 
ATOM     24  F   UNL     1       5.771   1.133   0.537  1.00  0.00    -0.166 F 
ENDBRANCH  18  21
ENDBRANCH   3  15
TORSDOF 4
