REMARK SMILES C[C@@H]1C[C@H]2[C@@H]3C[C@H](F)C4=CC(=O)C=C[C@]4(C)[C@@]3(F)[C@@H](O)C[C@]2(C)[C@@]1(OC(=O)c1ccco1)C(=O)SCF
REMARK SMILES IDX 1 1 2 2 3 3 4 4 5 5 6 6 7 7 8 8 9 9 10 10 11 11 12 12 13 13
REMARK SMILES IDX 14 14 15 15 16 16 17 17 18 18 19 19 21 20 22 21 23 22 24 23
REMARK SMILES IDX 25 24 26 25 27 26 28 27 29 28 32 29 30 30 31 31 33 32 34 33
REMARK SMILES IDX 35 34 36 35 37 36 20 37
REMARK H PARENT 20 38
ROOT
ATOM      1  C   UNL     1      -2.998  -1.855   2.007  1.00  0.00     0.012 C 
ATOM      2  C   UNL     1      -2.042  -2.000   0.826  1.00  0.00     0.040 C 
ATOM      3  C   UNL     1      -0.566  -1.982   1.314  1.00  0.00     0.012 C 
ATOM      4  C   UNL     1       0.103  -0.864   0.525  1.00  0.00     0.006 C 
ATOM      5  C   UNL     1       1.634  -0.875   0.383  1.00  0.00     0.037 C 
ATOM      6  C   UNL     1       2.304  -0.937   1.766  1.00  0.00     0.049 C 
ATOM      7  C   UNL     1       3.821  -0.843   1.680  1.00  0.00     0.194 C 
ATOM      8  F   UNL     1       4.307  -0.831   2.954  1.00  0.00    -0.243 F 
ATOM      9  C   UNL     1       4.239   0.387   0.917  1.00  0.00    -0.020 C 
ATOM     10  C   UNL     1       5.024   1.319   1.488  1.00  0.00     0.055 C 
ATOM     11  C   UNL     1       5.399   2.562   0.787  1.00  0.00     0.178 C 
ATOM     12  O   UNL     1       6.133   3.394   1.306  1.00  0.00    -0.290 OA
ATOM     13  C   UNL     1       4.855   2.761  -0.569  1.00  0.00     0.048 C 
ATOM     14  C   UNL     1       4.074   1.837  -1.144  1.00  0.00    -0.009 C 
ATOM     15  C   UNL     1       3.661   0.511  -0.505  1.00  0.00     0.047 C 
ATOM     16  C   UNL     1       4.305  -0.595  -1.373  1.00  0.00     0.024 C 
ATOM     17  C   UNL     1       2.083   0.407  -0.396  1.00  0.00     0.152 C 
ATOM     18  F   UNL     1       1.683   1.477   0.390  1.00  0.00    -0.239 F 
ATOM     19  C   UNL     1       1.299   0.581  -1.735  1.00  0.00     0.154 C 
ATOM     20  C   UNL     1      -0.230   0.427  -1.572  1.00  0.00     0.047 C 
ATOM     21  C   UNL     1      -0.648  -0.865  -0.826  1.00  0.00     0.022 C 
ATOM     22  C   UNL     1      -0.331  -2.113  -1.697  1.00  0.00     0.016 C 
ATOM     23  C   UNL     1      -2.153  -0.913  -0.309  1.00  0.00     0.189 C 
ENDROOT
BRANCH  23  24
ATOM     24  O   UNL     1      -2.401   0.398   0.267  1.00  0.00    -0.443 OA
BRANCH  24  25
ATOM     25  C   UNL     1      -3.678   0.817   0.482  1.00  0.00     0.375 C 
ATOM     26  O   UNL     1      -4.671   0.127   0.297  1.00  0.00    -0.242 OA
BRANCH  25  27
ATOM     27  C   UNL     1      -3.682   2.172   0.978  1.00  0.00     0.211 A 
ATOM     28  C   UNL     1      -4.732   2.999   1.336  1.00  0.00     0.058 A 
ATOM     29  O   UNL     1      -2.499   2.840   1.166  1.00  0.00    -0.457 OA
ATOM     30  C   UNL     1      -4.164   4.223   1.761  1.00  0.00     0.043 A 
ATOM     31  C   UNL     1      -2.803   4.075   1.639  1.00  0.00     0.196 A 
ENDBRANCH  25  27
ENDBRANCH  24  25
ENDBRANCH  23  24
BRANCH  23  32
ATOM     32  C   UNL     1      -3.093  -1.166  -1.531  1.00  0.00     0.236 C 
ATOM     33  O   UNL     1      -3.178  -0.354  -2.450  1.00  0.00    -0.282 OA
BRANCH  32  34
ATOM     34  S   UNL     1      -3.972  -2.690  -1.612  1.00  0.00    -0.050 SA
BRANCH  34  35
ATOM     35  C   UNL     1      -5.320  -2.166  -2.682  1.00  0.00     0.292 C 
ATOM     36  F   UNL     1      -6.149  -1.324  -2.016  1.00  0.00    -0.239 F 
ENDBRANCH  34  35
ENDBRANCH  32  34
ENDBRANCH  23  32
BRANCH  19  37
ATOM     37  O   UNL     1       1.758  -0.307  -2.749  1.00  0.00    -0.390 OA
ATOM     38  H   UNL     1       1.269  -0.097  -3.566  1.00  0.00     0.211 HD
ENDBRANCH  19  37
TORSDOF 7
