REMARK SMILES O=c1cc(CN2CCOCC2)c2cc(O)c(O)cc2o1
REMARK SMILES IDX 16 1 14 2 13 3 12 4 4 5 3 6 2 7 1 8 20 9 19 10 18 11 17 12
REMARK SMILES IDX 15 14 5 16 6 17 7 18 11 19 8 20 10 21 9 22
REMARK H PARENT 17 13 15 15
ROOT
ATOM      1  C   UNL     1       4.299   1.194   0.443  1.00  0.00     0.161 A 
ATOM      2  C   UNL     1       3.157   1.968   0.625  1.00  0.00     0.158 A 
ATOM      3  C   UNL     1       1.886   1.398   0.611  1.00  0.00     0.062 A 
ATOM      4  C   UNL     1       1.739   0.019   0.407  1.00  0.00     0.026 A 
ATOM      5  C   UNL     1       0.434  -0.669   0.375  1.00  0.00    -0.016 C 
ATOM      6  C   UNL     1       0.439  -2.003   0.215  1.00  0.00     0.099 C 
ATOM      7  C   UNL     1       1.653  -2.810   0.042  1.00  0.00     0.336 C 
ATOM      8  O   UNL     1       1.588  -4.025  -0.105  1.00  0.00    -0.246 OA
ATOM      9  O   UNL     1       2.858  -2.131   0.043  1.00  0.00    -0.423 OA
ATOM     10  C   UNL     1       2.907  -0.737   0.234  1.00  0.00     0.142 A 
ATOM     11  C   UNL     1       4.186  -0.171   0.246  1.00  0.00     0.098 A 
ENDROOT
BRANCH   1  12
ATOM     12  O   UNL     1       5.509   1.828   0.469  1.00  0.00    -0.504 OA
ATOM     13  H   UNL     1       6.207   1.163   0.333  1.00  0.00     0.293 HD
ENDBRANCH   1  12
BRANCH   2  14
ATOM     14  O   UNL     1       3.273   3.315   0.823  1.00  0.00    -0.504 OA
ATOM     15  H   UNL     1       4.236   3.489   0.796  1.00  0.00     0.293 HD
ENDBRANCH   2  14
BRANCH   5  16
ATOM     16  C   UNL     1      -0.837   0.148   0.535  1.00  0.00     0.121 C 
BRANCH  16  17
ATOM     17  N   UNL     1      -2.091  -0.574   0.263  1.00  0.00    -0.294 NA
ATOM     18  C   UNL     1      -2.354  -0.733  -1.187  1.00  0.00     0.113 C 
ATOM     19  C   UNL     1      -3.231   0.103   0.922  1.00  0.00     0.113 C 
ATOM     20  C   UNL     1      -3.378   0.270  -1.744  1.00  0.00     0.175 C 
ATOM     21  C   UNL     1      -4.569  -0.260   0.263  1.00  0.00     0.175 C 
ATOM     22  O   UNL     1      -4.653   0.195  -1.094  1.00  0.00    -0.379 OA
ENDBRANCH  16  17
ENDBRANCH   5  16
TORSDOF 4
