REMARK SMILES C[C@]12C=C(C=O)C(=O)C=C1CC[C@@H]1[C@@H]2[C@H](O)C[C@@]2(C)[C@H]1CC[C@]2(C)O
REMARK SMILES IDX 24 1 23 2 22 3 21 4 20 5 13 6 12 7 11 8 10 9 9 10 7 11 8 12
REMARK SMILES IDX 4 13 3 14 2 15 1 16 14 17 15 18 17 19 18 20 19 21 25 22
REMARK SMILES IDX 16 24 5 26 6 27
REMARK H PARENT 25 23 16 25
ROOT
ATOM      1  C   UNL     1       4.010   1.204   0.860  1.00  0.00     0.042 C 
ATOM      2  C   UNL     1       3.547  -0.247   1.044  1.00  0.00     0.068 C 
ATOM      3  C   UNL     1       3.951  -1.110  -0.180  1.00  0.00     0.036 C 
ATOM      4  C   UNL     1       2.672  -1.343  -1.004  1.00  0.00     0.007 C 
ATOM      5  C   UNL     1       1.626  -0.434  -0.364  1.00  0.00     0.001 C 
ATOM      6  C   UNL     1       0.144  -0.742  -0.608  1.00  0.00    -0.000 C 
ATOM      7  C   UNL     1      -0.168  -0.793  -2.112  1.00  0.00     0.009 C 
ATOM      8  C   UNL     1      -1.643  -1.075  -2.367  1.00  0.00     0.032 C 
ATOM      9  C   UNL     1      -2.495  -0.057  -1.654  1.00  0.00    -0.056 C 
ATOM     10  C   UNL     1      -3.331   0.722  -2.363  1.00  0.00     0.053 C 
ATOM     11  C   UNL     1      -4.141   1.783  -1.731  1.00  0.00     0.188 C 
ATOM     12  O   UNL     1      -4.885   2.481  -2.410  1.00  0.00    -0.289 OA
ATOM     13  C   UNL     1      -4.015   1.953  -0.271  1.00  0.00     0.059 C 
ATOM     14  C   UNL     1      -3.175   1.173   0.430  1.00  0.00    -0.000 C 
ATOM     15  C   UNL     1      -2.291   0.066  -0.134  1.00  0.00     0.013 C 
ATOM     16  C   UNL     1      -2.778  -1.234   0.548  1.00  0.00     0.021 C 
ATOM     17  C   UNL     1      -0.747   0.329   0.122  1.00  0.00     0.035 C 
ATOM     18  C   UNL     1      -0.325   0.483   1.620  1.00  0.00     0.119 C 
ATOM     19  C   UNL     1       1.196   0.650   1.820  1.00  0.00     0.042 C 
ATOM     20  C   UNL     1       2.004  -0.454   1.130  1.00  0.00     0.002 C 
ATOM     21  C   UNL     1       1.700  -1.809   1.834  1.00  0.00     0.015 C 
ENDROOT
BRANCH   2  22
ATOM     22  O   UNL     1       4.190  -0.737   2.218  1.00  0.00    -0.390 OA
ATOM     23  H   UNL     1       5.151  -0.707   2.070  1.00  0.00     0.211 HD
ENDBRANCH   2  22
BRANCH  18  24
ATOM     24  O   UNL     1      -0.929   1.649   2.178  1.00  0.00    -0.393 OA
ATOM     25  H   UNL     1      -0.672   1.702   3.116  1.00  0.00     0.210 HD
ENDBRANCH  18  24
BRANCH  13  26
ATOM     26  C   UNL     1      -4.829   2.979   0.427  1.00  0.00     0.263 C 
ATOM     27  O   UNL     1      -4.846   3.125   1.645  1.00  0.00    -0.298 OA
ENDBRANCH  13  26
TORSDOF 3
