REMARK SMILES O=C(O)c1ccccc1OP(=O)(O)O
REMARK SMILES IDX 4 1 9 2 8 3 7 4 6 5 5 6 2 7 1 8 3 9 10 11 11 12 12 13 13 14
REMARK SMILES IDX 14 16
REMARK H PARENT 3 10 13 15 14 17
ROOT
ATOM      1  C   UNL     1      -1.050   0.228  -0.020  1.00  0.00     0.102 A 
ATOM      2  C   UNL     1       0.107  -0.291  -0.614  1.00  0.00     0.146 A 
ATOM      3  C   UNL     1       0.260  -1.668  -0.781  1.00  0.00     0.048 A 
ATOM      4  C   UNL     1      -0.735  -2.539  -0.335  1.00  0.00     0.004 A 
ATOM      5  C   UNL     1      -1.888  -2.033   0.264  1.00  0.00     0.001 A 
ATOM      6  C   UNL     1      -2.048  -0.654   0.421  1.00  0.00     0.019 A 
ENDROOT
BRANCH   1   7
ATOM      7  C   UNL     1      -1.210   1.688   0.177  1.00  0.00     0.339 C 
ATOM      8  O   UNL     1      -0.309   2.498   0.320  1.00  0.00    -0.246 OA
BRANCH   7   9
ATOM      9  O   UNL     1      -2.502   2.061   0.192  1.00  0.00    -0.478 OA
ATOM     10  H   UNL     1      -2.484   3.035   0.300  1.00  0.00     0.297 HD
ENDBRANCH   7   9
ENDBRANCH   1   7
BRANCH   2  11
ATOM     11  O   UNL     1       1.072   0.525  -1.136  1.00  0.00    -0.403 OA
BRANCH  11  12
ATOM     12  P   UNL     1       2.369   0.959  -0.291  1.00  0.00     0.524 P 
ATOM     13  O   UNL     1       3.264   1.976  -0.914  1.00  0.00    -0.216 OA
BRANCH  12  14
ATOM     14  O   UNL     1       3.129  -0.415   0.025  1.00  0.00    -0.293 OA
ATOM     15  H   UNL     1       4.016  -0.225   0.378  1.00  0.00     0.225 HD
ENDBRANCH  12  14
BRANCH  12  16
ATOM     16  O   UNL     1       1.833   1.366   1.159  1.00  0.00    -0.293 OA
ATOM     17  H   UNL     1       1.249   2.154   1.071  1.00  0.00     0.225 HD
ENDBRANCH  12  16
ENDBRANCH  11  12
ENDBRANCH   2  11
TORSDOF 6
