REMARK SMILES Cc1ccccc1-c1cc(N2CC[N+](C)(COP(=O)(O)O)CC2)ncc1N(C)C(=O)C(C)(C)c1cc(C(F)(F)F)cc(C(F)(F)F)c1
REMARK SMILES IDX 26 1 25 2 24 3 10 4 9 5 8 6 27 7 28 8 29 9 30 10 31 11 32 12
REMARK SMILES IDX 33 13 34 14 47 15 35 16 42 17 36 18 41 19 43 20 44 21 45 22
REMARK SMILES IDX 46 23 37 24 38 25 39 26 40 27 7 28 2 29 6 30 3 31 5 32 4 33
REMARK SMILES IDX 1 34 11 35 12 36 23 37 13 38 22 39 14 40 15 41 16 42 17 43
REMARK SMILES IDX 18 44 19 45 20 46 21 48
REMARK H PARENT 20 47 21 49
ROOT
ATOM      1  C   UNL     1      -0.693  -0.863   0.425  1.00  0.00     0.070 A 
ATOM      2  C   UNL     1       0.143  -1.887   0.859  1.00  0.00     0.140 A 
ATOM      3  N   UNL     1       1.486  -1.782   1.023  1.00  0.00    -0.237 NA
ATOM      4  C   UNL     1       2.086  -0.610   0.752  1.00  0.00     0.129 A 
ATOM      5  C   UNL     1       1.315   0.480   0.357  1.00  0.00     0.058 A 
ATOM      6  C   UNL     1      -0.085   0.380   0.192  1.00  0.00     0.011 A 
ENDROOT
BRANCH   1   7
ATOM      7  N   UNL     1      -2.091  -1.123   0.192  1.00  0.00    -0.313 N 
ATOM      8  C   UNL     1      -2.775  -1.873   1.244  1.00  0.00     0.153 C 
BRANCH   7   9
ATOM      9  C   UNL     1      -2.547  -1.034  -1.136  1.00  0.00     0.236 C 
ATOM     10  O   UNL     1      -1.774  -0.703  -2.047  1.00  0.00    -0.274 OA
BRANCH   9  11
ATOM     11  C   UNL     1      -4.003  -1.460  -1.512  1.00  0.00     0.069 C 
ATOM     12  C   UNL     1      -4.074  -3.002  -1.417  1.00  0.00     0.027 C 
ATOM     13  C   UNL     1      -4.237  -1.097  -3.004  1.00  0.00     0.027 C 
BRANCH  11  14
ATOM     14  C   UNL     1      -5.118  -0.732  -0.737  1.00  0.00    -0.032 A 
ATOM     15  C   UNL     1      -4.953   0.587  -0.271  1.00  0.00     0.018 A 
ATOM     16  C   UNL     1      -6.376  -1.342  -0.539  1.00  0.00     0.018 A 
ATOM     17  C   UNL     1      -5.980   1.258   0.419  1.00  0.00     0.056 A 
ATOM     18  C   UNL     1      -7.429  -0.678   0.111  1.00  0.00     0.056 A 
ATOM     19  C   UNL     1      -7.214   0.616   0.600  1.00  0.00     0.026 A 
BRANCH  17  20
ATOM     20  C   UNL     1      -5.757   2.660   0.941  1.00  0.00     0.416 C 
ATOM     21  F   UNL     1      -4.678   2.736   1.771  1.00  0.00    -0.166 F 
ATOM     22  F   UNL     1      -5.543   3.565  -0.051  1.00  0.00    -0.166 F 
ATOM     23  F   UNL     1      -6.808   3.138   1.669  1.00  0.00    -0.166 F 
ENDBRANCH  17  20
BRANCH  18  24
ATOM     24  C   UNL     1      -8.763  -1.365   0.311  1.00  0.00     0.416 C 
ATOM     25  F   UNL     1      -8.834  -1.998   1.516  1.00  0.00    -0.166 F 
ATOM     26  F   UNL     1      -9.816  -0.506   0.273  1.00  0.00    -0.166 F 
ATOM     27  F   UNL     1      -9.020  -2.315  -0.630  1.00  0.00    -0.166 F 
ENDBRANCH  18  24
ENDBRANCH  11  14
ENDBRANCH   9  11
ENDBRANCH   7   9
ENDBRANCH   1   7
BRANCH   6  28
ATOM     28  C   UNL     1      -0.813   1.616  -0.156  1.00  0.00    -0.013 A 
ATOM     29  C   UNL     1      -1.460   2.407   0.819  1.00  0.00    -0.043 A 
ATOM     30  C   UNL     1      -0.792   2.078  -1.486  1.00  0.00     0.009 A 
ATOM     31  C   UNL     1      -2.069   3.614   0.439  1.00  0.00     0.004 A 
ATOM     32  C   UNL     1      -1.407   3.275  -1.852  1.00  0.00     0.001 A 
ATOM     33  C   UNL     1      -2.041   4.044  -0.886  1.00  0.00     0.000 A 
ATOM     34  C   UNL     1      -1.520   1.992   2.264  1.00  0.00     0.045 C 
ENDBRANCH   6  28
BRANCH   4  35
ATOM     35  N   UNL     1       3.473  -0.561   0.816  1.00  0.00    -0.345 N 
ATOM     36  C   UNL     1       4.169   0.720   1.003  1.00  0.00     0.179 C 
ATOM     37  C   UNL     1       4.160  -1.758   1.322  1.00  0.00     0.179 C 
ATOM     38  C   UNL     1       5.711   0.547   1.023  1.00  0.00     0.287 C 
ATOM     39  C   UNL     1       5.554  -1.940   0.673  1.00  0.00     0.287 C 
ATOM     40  N   UNL     1       6.172  -0.625   0.137  1.00  0.00    -0.300 N 
ATOM     41  C   UNL     1       5.743  -0.411  -1.318  1.00  0.00     0.336 C 
BRANCH  40  42
ATOM     42  C   UNL     1       7.688  -0.740   0.164  1.00  0.00     0.449 C 
BRANCH  42  43
ATOM     43  O   UNL     1       8.340   0.403  -0.320  1.00  0.00    -0.235 OA
BRANCH  43  44
ATOM     44  P   UNL     1       9.885   0.178  -0.680  1.00  0.00     0.474 P 
ATOM     45  O   UNL     1      10.379  -1.220  -0.577  1.00  0.00    -0.228 OA
BRANCH  44  46
ATOM     46  O   UNL     1      10.672   1.196   0.258  1.00  0.00    -0.303 OA
ATOM     47  H   UNL     1      11.633   1.004   0.256  1.00  0.00     0.223 HD
ENDBRANCH  44  46
BRANCH  44  48
ATOM     48  O   UNL     1      10.042   0.881  -2.100  1.00  0.00    -0.303 OA
ATOM     49  H   UNL     1       9.928   1.851  -2.063  1.00  0.00     0.223 HD
ENDBRANCH  44  48
ENDBRANCH  43  44
ENDBRANCH  42  43
ENDBRANCH  40  42
ENDBRANCH   4  35
TORSDOF 13
