REMARK SMILES COc1cc(C=NNC(=O)c2ccncc2)ccc1O
REMARK SMILES IDX 3 1 19 2 18 3 17 4 5 5 4 6 2 7 1 8 20 9 6 11 7 12 8 13 9 14
REMARK SMILES IDX 10 15 11 17 12 18 16 19 13 20 15 21 14 22
REMARK H PARENT 20 10 8 16
ROOT
ATOM      1  C   UNL     1      -3.970   0.201   0.108  1.00  0.00     0.161 A 
ATOM      2  C   UNL     1      -4.683  -0.999  -0.041  1.00  0.00     0.157 A 
ATOM      3  C   UNL     1      -4.024  -2.214  -0.235  1.00  0.00     0.051 A 
ATOM      4  C   UNL     1      -2.630  -2.243  -0.283  1.00  0.00     0.014 A 
ATOM      5  C   UNL     1      -1.910  -1.055  -0.136  1.00  0.00    -0.002 A 
ATOM      6  C   UNL     1      -2.574   0.164   0.059  1.00  0.00     0.060 A 
ENDROOT
BRANCH   1   7
ATOM      7  O   UNL     1      -4.719   1.333   0.293  1.00  0.00    -0.493 OA
ATOM      8  C   UNL     1      -4.021   2.561   0.452  1.00  0.00     0.278 C 
ENDBRANCH   1   7
BRANCH   2   9
ATOM      9  O   UNL     1      -6.051  -0.971   0.006  1.00  0.00    -0.504 OA
ATOM     10  H   UNL     1      -6.398  -1.868  -0.110  1.00  0.00     0.293 HD
ENDBRANCH   2   9
BRANCH   5  11
ATOM     11  C   UNL     1      -0.435  -1.106  -0.190  1.00  0.00     0.141 C 
ATOM     12  N   UNL     1       0.284  -0.037  -0.062  1.00  0.00    -0.180 NA
BRANCH  12  13
ATOM     13  N   UNL     1       1.633  -0.214  -0.128  1.00  0.00    -0.243 N 
ATOM     14  C   UNL     1       2.473   0.870   0.080  1.00  0.00     0.271 C 
ATOM     15  O   UNL     1       2.115   2.014   0.345  1.00  0.00    -0.267 OA
ATOM     16  H   UNL     1       2.003  -1.153  -0.201  1.00  0.00     0.194 HD
BRANCH  14  17
ATOM     17  C   UNL     1       3.927   0.572   0.006  1.00  0.00     0.044 A 
ATOM     18  C   UNL     1       4.442  -0.382  -0.873  1.00  0.00     0.034 A 
ATOM     19  C   UNL     1       4.793   1.300   0.822  1.00  0.00     0.034 A 
ATOM     20  C   UNL     1       5.810  -0.586  -0.872  1.00  0.00     0.112 A 
ATOM     21  C   UNL     1       6.144   1.018   0.749  1.00  0.00     0.112 A 
ATOM     22  N   UNL     1       6.668   0.084  -0.074  1.00  0.00    -0.265 NA
ENDBRANCH  14  17
ENDBRANCH  12  13
ENDBRANCH   5  11
TORSDOF 5
