REMARK SMILES O=P(O)(O)O[C@H]1[C@H](OP(=O)(O)O)[C@@H](OP(=O)(O)O)[C@H](OP(=O)(O)O)[C@@H](OP(=O)(O)O)[C@H]1OP(=O)(O)O
REMARK SMILES IDX 19 1 13 2 7 3 6 4 31 5 25 6 20 7 21 8 22 9 23 10 24 12 14 14
REMARK SMILES IDX 15 15 16 16 17 17 18 19 26 21 27 22 28 23 29 24 30 26 8 28
REMARK SMILES IDX 9 29 10 30 11 31 12 33 32 35 33 36 34 37 35 38 36 40 5 42
REMARK SMILES IDX 2 43 1 44 3 45 4 47
REMARK H PARENT 23 11 24 13 17 18 18 20 29 25 30 27 11 32 12 34 35 39 36 41
REMARK H PARENT 3 46 4 48
ROOT
ATOM      1  C   UNL     1       1.448  -0.491  -0.759  1.00  0.00     0.195 C 
ATOM      2  C   UNL     1       1.264   0.682   0.220  1.00  0.00     0.195 C 
ATOM      3  C   UNL     1      -0.148   0.810   0.799  1.00  0.00     0.195 C 
ATOM      4  C   UNL     1      -1.191   0.428  -0.242  1.00  0.00     0.195 C 
ATOM      5  C   UNL     1      -1.062  -1.048  -0.647  1.00  0.00     0.195 C 
ATOM      6  C   UNL     1       0.387  -1.584  -0.606  1.00  0.00     0.195 C 
ENDROOT
BRANCH   1   7
ATOM      7  O   UNL     1       1.374   0.016  -2.093  1.00  0.00    -0.278 OA
BRANCH   7   8
ATOM      8  P   UNL     1       2.757   0.502  -2.739  1.00  0.00     0.470 P 
ATOM      9  O   UNL     1       3.510   1.523  -1.952  1.00  0.00    -0.228 OA
BRANCH   8  10
ATOM     10  O   UNL     1       3.551  -0.841  -3.037  1.00  0.00    -0.303 OA
ATOM     11  H   UNL     1       4.431  -0.677  -3.417  1.00  0.00     0.223 HD
ENDBRANCH   8  10
BRANCH   8  12
ATOM     12  O   UNL     1       2.335   0.986  -4.193  1.00  0.00    -0.303 OA
ATOM     13  H   UNL     1       2.057   1.921  -4.232  1.00  0.00     0.223 HD
ENDBRANCH   8  12
ENDBRANCH   7   8
ENDBRANCH   1   7
BRANCH   2  14
ATOM     14  O   UNL     1       2.150   0.556   1.317  1.00  0.00    -0.278 OA
BRANCH  14  15
ATOM     15  P   UNL     1       3.509   1.396   1.402  1.00  0.00     0.470 P 
ATOM     16  O   UNL     1       4.745   0.592   1.209  1.00  0.00    -0.228 OA
BRANCH  15  17
ATOM     17  O   UNL     1       3.376   2.627   0.403  1.00  0.00    -0.303 OA
ATOM     18  H   UNL     1       3.689   2.374  -0.500  1.00  0.00     0.223 HD
ENDBRANCH  15  17
BRANCH  15  19
ATOM     19  O   UNL     1       3.363   2.114   2.818  1.00  0.00    -0.303 OA
ATOM     20  H   UNL     1       2.493   2.569   2.876  1.00  0.00     0.223 HD
ENDBRANCH  15  19
ENDBRANCH  14  15
ENDBRANCH   2  14
BRANCH   6  21
ATOM     21  O   UNL     1       0.635  -2.264   0.624  1.00  0.00    -0.278 OA
BRANCH  21  22
ATOM     22  P   UNL     1       0.543  -3.860   0.591  1.00  0.00     0.470 P 
ATOM     23  O   UNL     1      -0.640  -4.455  -0.099  1.00  0.00    -0.228 OA
BRANCH  22  24
ATOM     24  O   UNL     1       1.957  -4.298   0.006  1.00  0.00    -0.303 OA
ATOM     25  H   UNL     1       2.669  -4.125   0.651  1.00  0.00     0.223 HD
ENDBRANCH  22  24
BRANCH  22  26
ATOM     26  O   UNL     1       0.692  -4.294   2.113  1.00  0.00    -0.303 OA
ATOM     27  H   UNL     1      -0.163  -4.251   2.582  1.00  0.00     0.223 HD
ENDBRANCH  22  26
ENDBRANCH  21  22
ENDBRANCH   6  21
BRANCH   3  28
ATOM     28  O   UNL     1      -0.331   2.189   1.116  1.00  0.00    -0.278 OA
BRANCH  28  29
ATOM     29  P   UNL     1      -0.632   2.609   2.628  1.00  0.00     0.470 P 
ATOM     30  O   UNL     1      -1.419   1.678   3.475  1.00  0.00    -0.228 OA
BRANCH  29  31
ATOM     31  O   UNL     1      -1.262   4.057   2.426  1.00  0.00    -0.303 OA
ATOM     32  H   UNL     1      -2.090   3.966   1.885  1.00  0.00     0.223 HD
ENDBRANCH  29  31
BRANCH  29  33
ATOM     33  O   UNL     1       0.826   2.981   3.187  1.00  0.00    -0.303 OA
ATOM     34  H   UNL     1       0.700   3.451   4.036  1.00  0.00     0.223 HD
ENDBRANCH  29  33
ENDBRANCH  28  29
ENDBRANCH   3  28
BRANCH   5  35
ATOM     35  O   UNL     1      -1.870  -1.845   0.222  1.00  0.00    -0.278 OA
BRANCH  35  36
ATOM     36  P   UNL     1      -3.144  -2.621  -0.356  1.00  0.00     0.470 P 
ATOM     37  O   UNL     1      -3.953  -3.430   0.592  1.00  0.00    -0.228 OA
BRANCH  36  38
ATOM     38  O   UNL     1      -3.973  -1.512  -1.167  1.00  0.00    -0.303 OA
ATOM     39  H   UNL     1      -4.556  -1.965  -1.812  1.00  0.00     0.223 HD
ENDBRANCH  36  38
BRANCH  36  40
ATOM     40  O   UNL     1      -2.495  -3.455  -1.554  1.00  0.00    -0.303 OA
ATOM     41  H   UNL     1      -1.911  -4.152  -1.153  1.00  0.00     0.223 HD
ENDBRANCH  36  40
ENDBRANCH  35  36
ENDBRANCH   5  35
BRANCH   4  42
ATOM     42  O   UNL     1      -2.498   0.639   0.269  1.00  0.00    -0.278 OA
BRANCH  42  43
ATOM     43  P   UNL     1      -3.324   1.947  -0.099  1.00  0.00     0.470 P 
ATOM     44  O   UNL     1      -3.064   3.156   0.734  1.00  0.00    -0.228 OA
BRANCH  43  45
ATOM     45  O   UNL     1      -3.133   2.152  -1.668  1.00  0.00    -0.303 OA
ATOM     46  H   UNL     1      -3.654   2.921  -1.973  1.00  0.00     0.223 HD
ENDBRANCH  43  45
BRANCH  43  47
ATOM     47  O   UNL     1      -4.809   1.372  -0.059  1.00  0.00    -0.303 OA
ATOM     48  H   UNL     1      -4.806   0.445  -0.380  1.00  0.00     0.223 HD
ENDBRANCH  43  47
ENDBRANCH  42  43
ENDBRANCH   4  42
TORSDOF 24
