REMARK SMILES CC(OC(=O)NCC1(CC(=O)O)CCCCC1)OC(=O)C(C)C
REMARK SMILES IDX 4 1 5 2 6 3 3 5 2 6 1 7 18 8 19 9 20 10 21 11 22 12 23 13
REMARK SMILES IDX 7 14 8 15 13 16 17 17 14 18 16 19 15 20 9 21 10 22 11 23
REMARK SMILES IDX 12 24
REMARK H PARENT 6 4 12 25
ROOT
ATOM      1  C   UNL     1       0.247  -0.460  -0.986  1.00  0.00     0.410 C 
ATOM      2  O   UNL     1       0.175  -1.595  -1.428  1.00  0.00    -0.224 OA
ATOM      3  N   UNL     1      -0.779   0.433  -0.927  1.00  0.00    -0.321 N 
ATOM      4  H   UNL     1      -0.535   1.356  -0.597  1.00  0.00     0.167 HD
ENDROOT
BRANCH   1   5
ATOM      5  O   UNL     1       1.355   0.114  -0.467  1.00  0.00    -0.409 OA
BRANCH   5   6
ATOM      6  C   UNL     1       2.524  -0.722  -0.450  1.00  0.00     0.368 C 
ATOM      7  C   UNL     1       2.477  -1.617   0.786  1.00  0.00     0.102 C 
BRANCH   6   8
ATOM      8  O   UNL     1       3.668   0.145  -0.348  1.00  0.00    -0.425 OA
BRANCH   8   9
ATOM      9  C   UNL     1       4.842  -0.378  -0.784  1.00  0.00     0.311 C 
ATOM     10  O   UNL     1       4.988  -1.515  -1.213  1.00  0.00    -0.252 OA
BRANCH   9  11
ATOM     11  C   UNL     1       5.987   0.602  -0.616  1.00  0.00     0.093 C 
ATOM     12  C   UNL     1       5.606   2.016  -1.042  1.00  0.00     0.019 C 
ATOM     13  C   UNL     1       6.486   0.563   0.823  1.00  0.00     0.019 C 
ENDBRANCH   9  11
ENDBRANCH   8   9
ENDBRANCH   6   8
ENDBRANCH   5   6
ENDBRANCH   1   5
BRANCH   3  14
ATOM     14  C   UNL     1      -2.089   0.174  -1.469  1.00  0.00     0.127 C 
BRANCH  14  15
ATOM     15  C   UNL     1      -3.246  -0.021  -0.431  1.00  0.00    -0.002 C 
ATOM     16  C   UNL     1      -3.459   1.277   0.396  1.00  0.00     0.009 C 
ATOM     17  C   UNL     1      -2.979  -1.260   0.469  1.00  0.00     0.009 C 
ATOM     18  C   UNL     1      -2.532   1.449   1.598  1.00  0.00     0.001 C 
ATOM     19  C   UNL     1      -2.073  -1.016   1.674  1.00  0.00     0.001 C 
ATOM     20  C   UNL     1      -2.503   0.205   2.472  1.00  0.00     0.000 C 
BRANCH  15  21
ATOM     21  C   UNL     1      -4.506  -0.287  -1.323  1.00  0.00     0.131 C 
BRANCH  21  22
ATOM     22  C   UNL     1      -5.826  -0.528  -0.625  1.00  0.00     0.303 C 
ATOM     23  O   UNL     1      -6.076  -0.500   0.566  1.00  0.00    -0.252 OA
BRANCH  22  24
ATOM     24  O   UNL     1      -6.805  -0.794  -1.515  1.00  0.00    -0.481 OA
ATOM     25  H   UNL     1      -7.600  -0.933  -0.958  1.00  0.00     0.296 HD
ENDBRANCH  22  24
ENDBRANCH  21  22
ENDBRANCH  15  21
ENDBRANCH  14  15
ENDBRANCH   3  14
TORSDOF 10
