REMARK SMILES CCOC(=O)c1ccc(OC(=O)CCCCCNC(=N)N)cc1
REMARK SMILES IDX 11 1 12 2 10 3 9 4 6 5 7 6 23 7 8 8 22 9 4 10 5 11 3 12 2 13
REMARK SMILES IDX 1 14 13 15 14 16 15 17 16 18 17 19 18 20 19 21 21 22 20 23
REMARK H PARENT 18 24 21 25 21 26 20 27
ROOT
ATOM      1  C   UNL     1       0.283   0.627   0.206  1.00  0.00     0.311 C 
ATOM      2  O   UNL     1       0.140  -0.143   1.147  1.00  0.00    -0.252 OA
ENDROOT
BRANCH   1   3
ATOM      3  O   UNL     1      -0.712   1.135  -0.620  1.00  0.00    -0.427 OA
BRANCH   3   4
ATOM      4  C   UNL     1      -1.991   0.683  -0.293  1.00  0.00     0.130 A 
ATOM      5  C   UNL     1      -4.583  -0.172   0.265  1.00  0.00     0.060 A 
ATOM      6  C   UNL     1      -3.976   0.810   1.065  1.00  0.00     0.019 A 
ATOM      7  C   UNL     1      -3.879  -0.710  -0.825  1.00  0.00     0.019 A 
ATOM      8  C   UNL     1      -2.679   1.245   0.781  1.00  0.00     0.048 A 
ATOM      9  C   UNL     1      -2.582  -0.278  -1.110  1.00  0.00     0.048 A 
BRANCH   5  10
ATOM     10  C   UNL     1      -5.963  -0.670   0.521  1.00  0.00     0.338 C 
ATOM     11  O   UNL     1      -6.517  -1.504  -0.177  1.00  0.00    -0.246 OA
BRANCH  10  12
ATOM     12  O   UNL     1      -6.492  -0.068   1.615  1.00  0.00    -0.462 OA
BRANCH  12  13
ATOM     13  C   UNL     1      -7.823  -0.473   1.968  1.00  0.00     0.230 C 
ATOM     14  C   UNL     1      -8.841   0.360   1.212  1.00  0.00     0.049 C 
ENDBRANCH  12  13
ENDBRANCH  10  12
ENDBRANCH   5  10
ENDBRANCH   3   4
ENDBRANCH   1   3
BRANCH   1  15
ATOM     15  C   UNL     1       1.622   1.153  -0.248  1.00  0.00     0.123 C 
BRANCH  15  16
ATOM     16  C   UNL     1       2.156   0.325  -1.411  1.00  0.00     0.012 C 
BRANCH  16  17
ATOM     17  C   UNL     1       3.493   0.835  -1.955  1.00  0.00     0.002 C 
BRANCH  17  18
ATOM     18  C   UNL     1       4.663   0.814  -0.966  1.00  0.00     0.021 C 
BRANCH  18  19
ATOM     19  C   UNL     1       5.008  -0.589  -0.463  1.00  0.00     0.116 C 
BRANCH  19  20
ATOM     20  N   UNL     1       6.179  -0.550   0.400  1.00  0.00    -0.357 N 
ATOM     21  C   UNL     1       7.433  -0.510  -0.100  1.00  0.00     0.185 C 
ATOM     22  N   UNL     1       8.380  -0.392   0.853  1.00  0.00    -0.370 N 
ATOM     23  N   UNL     1       7.749  -0.615  -1.338  1.00  0.00    -0.270 NA
ATOM     24  H   UNL     1       6.017  -0.107   1.292  1.00  0.00     0.163 HD
ATOM     25  H   UNL     1       8.243   0.457   1.391  1.00  0.00     0.159 HD
ATOM     26  H   UNL     1       8.249  -1.131   1.540  1.00  0.00     0.159 HD
ATOM     27  H   UNL     1       8.773  -0.574  -1.376  1.00  0.00     0.191 HD
ENDBRANCH  19  20
ENDBRANCH  18  19
ENDBRANCH  17  18
ENDBRANCH  16  17
ENDBRANCH  15  16
ENDBRANCH   1  15
TORSDOF 11
