REMARK SMILES COc1c(N2CCNC(C)C2)c(F)cc2c(=O)c(C(=O)O)cn(C3CC3)c12
REMARK SMILES IDX 3 1 27 2 23 3 22 4 18 5 16 6 17 7 15 8 14 9 12 10 13 11 4 12
REMARK SMILES IDX 2 13 1 14 5 15 6 16 11 17 7 18 9 19 8 20 10 21 24 23 25 24
REMARK SMILES IDX 26 25 19 26 20 27 21 28
REMARK H PARENT 8 22 21 29
ROOT
ATOM      1  C   UNL     1      -0.323  -0.159  -0.051  1.00  0.00     0.169 A 
ATOM      2  C   UNL     1      -1.627   0.390  -0.156  1.00  0.00     0.097 A 
ATOM      3  N   UNL     1      -2.841  -0.340   0.039  1.00  0.00    -0.340 N 
ATOM      4  C   UNL     1      -4.048   0.237  -0.313  1.00  0.00     0.106 C 
ATOM      5  C   UNL     1      -4.236   1.508  -0.694  1.00  0.00     0.124 C 
ATOM      6  C   UNL     1      -3.049   2.389  -0.699  1.00  0.00     0.204 C 
ATOM      7  O   UNL     1      -3.127   3.604  -0.846  1.00  0.00    -0.288 OA
ATOM      8  C   UNL     1      -1.720   1.755  -0.493  1.00  0.00     0.053 A 
ATOM      9  C   UNL     1      -0.580   2.548  -0.645  1.00  0.00     0.056 A 
ATOM     10  C   UNL     1       0.680   1.992  -0.465  1.00  0.00     0.151 A 
ATOM     11  F   UNL     1       1.729   2.819  -0.591  1.00  0.00    -0.205 F 
ATOM     12  C   UNL     1       0.861   0.633  -0.152  1.00  0.00     0.118 A 
ENDROOT
BRANCH   1  13
ATOM     13  O   UNL     1      -0.186  -1.522   0.135  1.00  0.00    -0.492 OA
ATOM     14  C   UNL     1       0.160  -2.160  -1.096  1.00  0.00     0.278 C 
ENDBRANCH   1  13
BRANCH  12  15
ATOM     15  N   UNL     1       2.128   0.039   0.042  1.00  0.00    -0.363 N 
ATOM     16  C   UNL     1       2.353  -0.421   1.434  1.00  0.00     0.132 C 
ATOM     17  C   UNL     1       3.318   0.701  -0.532  1.00  0.00     0.135 C 
ATOM     18  C   UNL     1       3.607  -1.324   1.497  1.00  0.00     0.102 C 
ATOM     19  C   UNL     1       4.547  -0.249  -0.444  1.00  0.00     0.070 C 
ATOM     20  N   UNL     1       4.826  -0.696   0.944  1.00  0.00    -0.311 NA
ATOM     21  C   UNL     1       5.793   0.442  -0.995  1.00  0.00     0.026 C 
ATOM     22  H   UNL     1       5.041   0.128   1.507  1.00  0.00     0.123 HD
ENDBRANCH  12  15
BRANCH   3  23
ATOM     23  C   UNL     1      -2.880  -1.698   0.616  1.00  0.00     0.087 C 
ATOM     24  C   UNL     1      -3.871  -2.094   1.688  1.00  0.00     0.027 C 
ATOM     25  C   UNL     1      -2.422  -1.968   2.030  1.00  0.00     0.027 C 
ENDBRANCH   3  23
BRANCH   5  26
ATOM     26  C   UNL     1      -5.598   1.924  -1.044  1.00  0.00     0.341 C 
ATOM     27  O   UNL     1      -6.627   1.405  -0.642  1.00  0.00    -0.246 OA
BRANCH  26  28
ATOM     28  O   UNL     1      -5.634   2.921  -1.940  1.00  0.00    -0.477 OA
ATOM     29  H   UNL     1      -6.586   3.110  -2.071  1.00  0.00     0.297 HD
ENDBRANCH  26  28
ENDBRANCH   5  26
TORSDOF 5
