REMARK SMILES CC(=O)[C@@]1(O)CC[C@H]2[C@@H]3CCC4=CC(=O)CC[C@@H]4[C@H]3CC[C@@]21C
REMARK SMILES IDX 4 1 6 2 7 3 8 4 9 5 10 6 11 7 12 8 13 9 14 10 15 11 16 12
REMARK SMILES IDX 17 13 18 14 19 15 20 16 21 17 22 18 23 19 2 20 3 21 1 22
REMARK SMILES IDX 5 23
REMARK H PARENT 5 24
ROOT
ATOM      1  C   UNL     1       3.197   0.639  -0.114  1.00  0.00     0.128 C 
ATOM      2  C   UNL     1       3.164   1.282  -1.531  1.00  0.00     0.044 C 
ATOM      3  C   UNL     1       1.691   1.276  -1.989  1.00  0.00     0.008 C 
ATOM      4  C   UNL     1       0.908   0.837  -0.756  1.00  0.00     0.002 C 
ATOM      5  C   UNL     1      -0.512   0.290  -0.941  1.00  0.00    -0.003 C 
ATOM      6  C   UNL     1      -1.437   1.220  -1.755  1.00  0.00     0.008 C 
ATOM      7  C   UNL     1      -2.706   1.652  -1.021  1.00  0.00     0.032 C 
ATOM      8  C   UNL     1      -3.410   0.518  -0.316  1.00  0.00    -0.063 C 
ATOM      9  C   UNL     1      -4.745   0.535  -0.161  1.00  0.00     0.046 C 
ATOM     10  C   UNL     1      -5.442  -0.528   0.601  1.00  0.00     0.155 C 
ATOM     11  O   UNL     1      -6.670  -0.525   0.650  1.00  0.00    -0.295 OA
ATOM     12  C   UNL     1      -4.617  -1.608   1.261  1.00  0.00     0.081 C 
ATOM     13  C   UNL     1      -3.188  -1.148   1.536  1.00  0.00     0.016 C 
ATOM     14  C   UNL     1      -2.540  -0.586   0.264  1.00  0.00     0.019 C 
ATOM     15  C   UNL     1      -1.098  -0.059   0.461  1.00  0.00    -0.000 C 
ATOM     16  C   UNL     1      -0.170  -1.015   1.241  1.00  0.00     0.005 C 
ATOM     17  C   UNL     1       1.279  -0.496   1.322  1.00  0.00     0.011 C 
ATOM     18  C   UNL     1       1.863  -0.177  -0.067  1.00  0.00     0.007 C 
ATOM     19  C   UNL     1       2.022  -1.507  -0.859  1.00  0.00     0.015 C 
ENDROOT
BRANCH   1  20
ATOM     20  C   UNL     1       4.477  -0.211   0.088  1.00  0.00     0.161 C 
ATOM     21  O   UNL     1       5.048  -0.789  -0.840  1.00  0.00    -0.297 OA
ATOM     22  C   UNL     1       5.000  -0.355   1.495  1.00  0.00     0.091 C 
ENDBRANCH   1  20
BRANCH   1  23
ATOM     23  O   UNL     1       3.168   1.736   0.806  1.00  0.00    -0.382 OA
ATOM     24  H   UNL     1       3.051   1.398   1.708  1.00  0.00     0.212 HD
ENDBRANCH   1  23
TORSDOF 2
