REMARK SMILES CCc1nc(C(N)=O)c(Nc2ccc(N3CCC(N4CCN(C)CC4)CC3)c(OC)c2)nc1NC1CCOCC1
REMARK SMILES IDX 11 1 12 2 13 3 14 4 28 5 31 6 10 7 9 9 3 10 4 11 33 12 5 13
REMARK SMILES IDX 32 14 2 15 1 16 34 17 35 19 36 20 40 21 37 22 39 23 38 24
REMARK SMILES IDX 6 25 7 26 8 27 29 30 30 31 15 32 16 33 27 34 17 35 26 36
REMARK SMILES IDX 18 37 19 38 20 39 25 40 21 41 24 42 22 43 23 44
REMARK H PARENT 10 8 34 18 7 28 7 29
ROOT
ATOM      1  C   UNL     1      -1.019  -0.198   1.900  1.00  0.00     0.043 A 
ATOM      2  C   UNL     1       0.078   0.438   2.483  1.00  0.00     0.028 A 
ATOM      3  C   UNL     1       1.223   0.745   1.738  1.00  0.00     0.032 A 
ATOM      4  C   UNL     1       1.329   0.429   0.372  1.00  0.00     0.079 A 
ATOM      5  C   UNL     1       0.181  -0.146  -0.233  1.00  0.00     0.144 A 
ATOM      6  C   UNL     1      -0.955  -0.470   0.532  1.00  0.00     0.074 A 
ENDROOT
BRANCH   1   7
ATOM      7  N   UNL     1      -2.111  -0.541   2.710  1.00  0.00    -0.338 N 
ATOM      8  H   UNL     1      -1.956  -0.423   3.716  1.00  0.00     0.168 HD
BRANCH   7   9
ATOM      9  C   UNL     1      -3.430  -0.935   2.409  1.00  0.00     0.164 A 
ATOM     10  C   UNL     1      -5.915  -1.898   1.816  1.00  0.00     0.084 A 
ATOM     11  N   UNL     1      -5.457  -2.125   3.074  1.00  0.00    -0.240 NA
ATOM     12  C   UNL     1      -5.181  -1.156   0.868  1.00  0.00     0.150 A 
ATOM     13  C   UNL     1      -4.216  -1.620   3.346  1.00  0.00     0.171 A 
ATOM     14  N   UNL     1      -3.938  -0.712   1.169  1.00  0.00    -0.209 NA
BRANCH  10  15
ATOM     15  C   UNL     1      -7.272  -2.478   1.509  1.00  0.00     0.057 C 
ATOM     16  C   UNL     1      -8.392  -1.523   1.896  1.00  0.00     0.011 C 
ENDBRANCH  10  15
BRANCH  12  17
ATOM     17  N   UNL     1      -5.699  -0.920  -0.418  1.00  0.00    -0.366 N 
ATOM     18  H   UNL     1      -6.666  -0.604  -0.352  1.00  0.00     0.162 HD
BRANCH  17  19
ATOM     19  C   UNL     1      -4.932  -0.002  -1.277  1.00  0.00     0.085 C 
ATOM     20  C   UNL     1      -5.356  -0.228  -2.728  1.00  0.00     0.053 C 
ATOM     21  C   UNL     1      -5.168   1.466  -0.881  1.00  0.00     0.053 C 
ATOM     22  C   UNL     1      -6.798   0.204  -2.982  1.00  0.00     0.162 C 
ATOM     23  C   UNL     1      -6.316   2.104  -1.656  1.00  0.00     0.162 C 
ATOM     24  O   UNL     1      -7.287   1.116  -1.994  1.00  0.00    -0.381 OA
ENDBRANCH  17  19
ENDBRANCH  12  17
BRANCH  13  25
ATOM     25  C   UNL     1      -3.739  -1.842   4.748  1.00  0.00     0.271 C 
ATOM     26  N   UNL     1      -4.554  -2.615   5.536  1.00  0.00    -0.364 N 
ATOM     27  O   UNL     1      -2.704  -1.351   5.186  1.00  0.00    -0.268 OA
ATOM     28  H   UNL     1      -5.407  -3.005   5.143  1.00  0.00     0.160 HD
ATOM     29  H   UNL     1      -4.300  -2.814   6.493  1.00  0.00     0.160 HD
ENDBRANCH  13  25
ENDBRANCH   7   9
ENDBRANCH   1   7
BRANCH   5  30
ATOM     30  O   UNL     1       0.245  -0.391  -1.589  1.00  0.00    -0.495 OA
ATOM     31  C   UNL     1      -0.994  -0.420  -2.288  1.00  0.00     0.278 C 
ENDBRANCH   5  30
BRANCH   4  32
ATOM     32  N   UNL     1       2.517   0.675  -0.340  1.00  0.00    -0.368 N 
ATOM     33  C   UNL     1       3.524   1.595   0.192  1.00  0.00     0.118 C 
ATOM     34  C   UNL     1       2.990  -0.412  -1.217  1.00  0.00     0.118 C 
ATOM     35  C   UNL     1       4.555   1.931  -0.883  1.00  0.00     0.040 C 
ATOM     36  C   UNL     1       4.499  -0.611  -1.082  1.00  0.00     0.040 C 
ATOM     37  C   UNL     1       5.253   0.677  -1.454  1.00  0.00     0.060 C 
BRANCH  37  38
ATOM     38  N   UNL     1       6.699   0.672  -1.152  1.00  0.00    -0.298 NA
ATOM     39  C   UNL     1       7.061   0.449   0.254  1.00  0.00     0.100 C 
ATOM     40  C   UNL     1       7.477  -0.213  -2.043  1.00  0.00     0.100 C 
ATOM     41  C   UNL     1       8.575   0.689   0.522  1.00  0.00     0.099 C 
ATOM     42  C   UNL     1       8.869  -0.621  -1.487  1.00  0.00     0.099 C 
ATOM     43  N   UNL     1       9.502   0.356  -0.584  1.00  0.00    -0.304 NA
ATOM     44  C   UNL     1       9.892   1.563  -1.315  1.00  0.00     0.105 C 
ENDBRANCH  37  38
ENDBRANCH   4  32
TORSDOF 9
