REMARK SMILES CCC1=C(C)CN(C(=O)NCCc2ccc(S(=O)(=O)NC(=O)N[C@H]3CC[C@H](C)CC3)cc2)C1=O
REMARK SMILES IDX 12 1 11 2 10 3 8 4 9 5 7 7 3 8 4 9 33 10 6 11 34 12 5 13
REMARK SMILES IDX 2 14 1 15 13 16 14 17 32 18 15 19 31 20 16 21 17 22 18 23
REMARK SMILES IDX 19 24 20 25 21 26 22 27 23 28 24 31 30 32 25 33 29 34 26 35
REMARK SMILES IDX 27 36 28 37
REMARK H PARENT 10 6 20 29 23 30
ROOT
ATOM      1  C   UNL     1      -2.406  -1.307  -1.964  1.00  0.00     0.057 C 
ENDROOT
BRANCH   1   2
ATOM      2  C   UNL     1      -2.526  -0.462  -0.697  1.00  0.00     0.122 C 
BRANCH   2   3
ATOM      3  N   UNL     1      -3.900  -0.363  -0.248  1.00  0.00    -0.337 N 
ATOM      4  C   UNL     1      -4.211   0.161   0.982  1.00  0.00     0.324 C 
ATOM      5  O   UNL     1      -3.360   0.420   1.831  1.00  0.00    -0.248 OA
ATOM      6  H   UNL     1      -4.633  -0.285  -0.950  1.00  0.00     0.165 HD
BRANCH   4   7
ATOM      7  N   UNL     1      -5.561   0.372   1.199  1.00  0.00    -0.256 N 
ATOM      8  C   UNL     1      -7.856   0.616   1.008  1.00  0.00     0.018 C 
ATOM      9  C   UNL     1      -7.492   0.993   2.243  1.00  0.00    -0.045 C 
ATOM     10  C   UNL     1      -6.613   0.232   0.301  1.00  0.00     0.258 C 
ATOM     11  C   UNL     1      -6.019   0.874   2.463  1.00  0.00     0.162 C 
ATOM     12  O   UNL     1      -6.562  -0.127  -0.865  1.00  0.00    -0.269 OA
ATOM     13  C   UNL     1      -8.357   1.484   3.350  1.00  0.00     0.042 C 
BRANCH   8  14
ATOM     14  C   UNL     1      -9.180   0.593   0.330  1.00  0.00     0.038 C 
ATOM     15  C   UNL     1      -9.755  -0.812   0.245  1.00  0.00     0.009 C 
ENDBRANCH   8  14
ENDBRANCH   4   7
ENDBRANCH   2   3
ENDBRANCH   1   2
BRANCH   1  16
ATOM     16  C   UNL     1      -0.972  -1.448  -2.414  1.00  0.00    -0.046 A 
ATOM     17  C   UNL     1      -0.243  -2.605  -2.105  1.00  0.00     0.005 A 
ATOM     18  C   UNL     1      -0.347  -0.412  -3.124  1.00  0.00     0.005 A 
ATOM     19  C   UNL     1       1.091  -2.726  -2.496  1.00  0.00     0.022 A 
ATOM     20  C   UNL     1       0.987  -0.527  -3.517  1.00  0.00     0.022 A 
ATOM     21  C   UNL     1       1.705  -1.678  -3.186  1.00  0.00     0.087 A 
BRANCH  21  22
ATOM     22  S   UNL     1       3.398  -1.839  -3.693  1.00  0.00     0.265 S 
ATOM     23  O   UNL     1       3.654  -3.253  -3.893  1.00  0.00    -0.201 OA
ATOM     24  O   UNL     1       3.682  -0.886  -4.742  1.00  0.00    -0.201 OA
BRANCH  22  25
ATOM     25  N   UNL     1       4.253  -1.435  -2.327  1.00  0.00    -0.231 N 
ATOM     26  C   UNL     1       4.183  -0.213  -1.682  1.00  0.00     0.328 C 
ATOM     27  O   UNL     1       3.496   0.718  -2.064  1.00  0.00    -0.248 OA
ATOM     28  N   UNL     1       4.971  -0.180  -0.567  1.00  0.00    -0.335 N 
ATOM     29  H   UNL     1       4.754  -2.217  -1.931  1.00  0.00     0.185 HD
ATOM     30  H   UNL     1       5.654  -0.913  -0.460  1.00  0.00     0.165 HD
BRANCH  28  31
ATOM     31  C   UNL     1       5.130   1.035   0.225  1.00  0.00     0.083 C 
ATOM     32  C   UNL     1       5.514   0.691   1.674  1.00  0.00     0.025 C 
ATOM     33  C   UNL     1       6.148   1.981  -0.417  1.00  0.00     0.025 C 
ATOM     34  C   UNL     1       7.003   0.862   1.989  1.00  0.00     0.005 C 
ATOM     35  C   UNL     1       7.575   1.421  -0.417  1.00  0.00     0.005 C 
ATOM     36  C   UNL     1       7.890   0.520   0.790  1.00  0.00    -0.014 C 
ATOM     37  C   UNL     1       9.371   0.605   1.159  1.00  0.00     0.007 C 
ENDBRANCH  28  31
ENDBRANCH  22  25
ENDBRANCH  21  22
ENDBRANCH   1  16
TORSDOF 8
