REMARK SMILES Cc1cc(C(=O)NCCc2ccc(S(=O)(=O)NC(=O)NN3CCCCCC3)cc2)no1
REMARK SMILES IDX 10 1 11 2 12 3 13 4 28 5 29 6 9 7 8 8 7 9 5 10 6 11 4 13
REMARK SMILES IDX 2 14 3 15 31 16 30 17 1 18 14 19 15 20 16 21 17 22 18 23
REMARK SMILES IDX 19 24 20 25 21 28 22 29 23 30 24 31 27 33 26 34 25 35
REMARK H PARENT 7 12 17 26 20 27
REMARK Flexibility Score:   81.900
ROOT
ATOM      1  C   UNL     1      -2.735  -1.152   1.298  1.00  0.00    -0.046 A 
ATOM      2  C   UNL     1      -2.054  -2.248   0.747  1.00  0.00     0.005 A 
ATOM      3  C   UNL     1      -0.697  -2.440   1.009  1.00  0.00     0.022 A 
ATOM      4  C   UNL     1      -0.017  -1.527   1.820  1.00  0.00     0.087 A 
ATOM      5  C   UNL     1      -0.683  -0.434   2.382  1.00  0.00     0.022 A 
ATOM      6  C   UNL     1      -2.039  -0.246   2.113  1.00  0.00     0.005 A 
ENDROOT
BRANCH   1   7
ATOM      7  C   UNL     1      -4.200  -0.936   1.009  1.00  0.00     0.057 C 
BRANCH   7   8
ATOM      8  C   UNL     1      -4.411  -0.120  -0.269  1.00  0.00     0.121 C 
BRANCH   8   9
ATOM      9  N   UNL     1      -5.815   0.132  -0.535  1.00  0.00    -0.350 N 
ATOM     10  C   UNL     1      -6.499   1.134   0.140  1.00  0.00     0.273 C 
ATOM     11  O   UNL     1      -5.929   1.866   0.946  1.00  0.00    -0.267 OA
ATOM     12  H   UNL     1      -6.328  -0.546  -1.078  1.00  0.00     0.163 HD
BRANCH  10  13
ATOM     13  C   UNL     1      -7.933   1.234  -0.169  1.00  0.00     0.171 A 
ATOM     14  C   UNL     1      -9.969   1.043  -1.025  1.00  0.00     0.134 A 
ATOM     15  C   UNL     1      -8.685   0.591  -1.193  1.00  0.00     0.082 A 
ATOM     16  O   UNL     1     -10.003   1.901   0.026  1.00  0.00    -0.361 OA
ATOM     17  N   UNL     1      -8.739   2.027   0.560  1.00  0.00    -0.074 NA
ATOM     18  C   UNL     1     -11.248   0.803  -1.715  1.00  0.00     0.091 C 
ENDBRANCH  10  13
ENDBRANCH   8   9
ENDBRANCH   7   8
ENDBRANCH   1   7
BRANCH   4  19
ATOM     19  S   UNL     1       1.719  -1.764   2.158  1.00  0.00     0.265 S 
ATOM     20  O   UNL     1       2.022  -3.140   1.835  1.00  0.00    -0.201 OA
ATOM     21  O   UNL     1       1.968  -1.190   3.461  1.00  0.00    -0.201 OA
BRANCH  19  22
ATOM     22  N   UNL     1       2.374  -0.774   0.989  1.00  0.00    -0.230 N 
ATOM     23  C   UNL     1       3.747  -0.627   0.824  1.00  0.00     0.343 C 
ATOM     24  O   UNL     1       4.565  -1.210   1.518  1.00  0.00    -0.246 OA
ATOM     25  N   UNL     1       4.057   0.245  -0.206  1.00  0.00    -0.270 N 
ATOM     26  H   UNL     1       1.720  -0.280   0.400  1.00  0.00     0.185 HD
ATOM     27  H   UNL     1       3.312   0.702  -0.713  1.00  0.00     0.187 HD
BRANCH  25  28
ATOM     28  N   UNL     1       5.382   0.577  -0.595  1.00  0.00    -0.220 NA
BRANCH  28  29
ATOM     29  C   UNL     1       6.128   1.228   0.494  1.00  0.00     0.108 C 
BRANCH  29  30
ATOM     30  C   UNL     1       7.228   2.139  -0.050  1.00  0.00     0.018 C 
BRANCH  30  31
ATOM     31  C   UNL     1       8.563   1.462  -0.342  1.00  0.00     0.001 CG0
ATOM     32  G   UNL     1       8.517   0.031  -0.865  1.00  0.00     0.000 G0
ENDBRANCH  30  31
ENDBRANCH  29  30
ENDBRANCH  28  29
BRANCH  28  33
ATOM     33  C   UNL     1       6.064  -0.573  -1.204  1.00  0.00     0.108 C 
BRANCH  33  34
ATOM     34  C   UNL     1       7.405  -0.247  -1.869  1.00  0.00     0.018 C 
BRANCH  34  35
ATOM     35  C   UNL     1       8.517   0.031  -0.865  1.00  0.00     0.001 CG0
ATOM     36  G   UNL     1       8.563   1.462  -0.342  1.00  0.00     0.000 G0
ENDBRANCH  34  35
ENDBRANCH  33  34
ENDBRANCH  28  33
ENDBRANCH  25  28
ENDBRANCH  19  22
ENDBRANCH   4  19
TORSDOF 7
