REMARK SMILES OC[C@H]1O[C@@H](O)[C@H](O)[C@@H](O)[C@@H]1O
REMARK SMILES IDX 3 1 4 2 5 3 7 4 9 5 11 6 2 7 1 8 12 10 6 12 10 14 8 16
REMARK H PARENT 1 9 12 11 6 13 10 15 8 17
ROOT
ATOM      1  C   UNL     1       1.025  -0.176  -0.389  1.00  0.00     0.178 C 
ATOM      2  O   UNL     1       0.671  -1.296   0.424  1.00  0.00    -0.342 OA
ATOM      3  C   UNL     1      -0.666  -1.742   0.225  1.00  0.00     0.279 C 
ATOM      4  C   UNL     1      -1.696  -0.630   0.499  1.00  0.00     0.201 C 
ATOM      5  C   UNL     1      -1.349   0.615  -0.312  1.00  0.00     0.179 C 
ATOM      6  C   UNL     1       0.108   1.027  -0.108  1.00  0.00     0.177 C 
ENDROOT
BRANCH   1   7
ATOM      7  C   UNL     1       2.494   0.164  -0.099  1.00  0.00     0.191 C 
BRANCH   7   8
ATOM      8  O   UNL     1       2.915   1.302  -0.846  1.00  0.00    -0.394 OA
ATOM      9  H   UNL     1       3.873   1.399  -0.687  1.00  0.00     0.210 HD
ENDBRANCH   7   8
ENDBRANCH   1   7
BRANCH   6  10
ATOM     10  O   UNL     1       0.366   2.134  -0.982  1.00  0.00    -0.387 OA
ATOM     11  H   UNL     1       1.344   2.202  -1.064  1.00  0.00     0.211 HD
ENDBRANCH   6  10
BRANCH   3  12
ATOM     12  O   UNL     1      -0.879  -2.813   1.136  1.00  0.00    -0.366 OA
ATOM     13  H   UNL     1      -0.451  -3.586   0.737  1.00  0.00     0.213 HD
ENDBRANCH   3  12
BRANCH   5  14
ATOM     14  O   UNL     1      -2.223   1.692   0.067  1.00  0.00    -0.387 OA
ATOM     15  H   UNL     1      -1.837   2.486  -0.357  1.00  0.00     0.211 HD
ENDBRANCH   5  14
BRANCH   4  16
ATOM     16  O   UNL     1      -3.024  -1.047   0.136  1.00  0.00    -0.385 OA
ATOM     17  H   UNL     1      -3.578  -0.252   0.263  1.00  0.00     0.211 HD
ENDBRANCH   4  16
TORSDOF 6
