REMARK SMILES NC(=O)CC[C@H](N)C(=O)O
REMARK SMILES IDX 6 1 7 2 5 5 4 6 2 7 1 8 3 9 8 12 9 13 10 14
REMARK H PARENT 7 3 7 4 1 10 1 11 10 15
ROOT
ATOM      1  C   UNL     1      -0.741  -1.043   0.238  1.00  0.00     0.162 C 
ENDROOT
BRANCH   1   2
ATOM      2  N   UNL     1      -1.437  -2.329  -0.026  1.00  0.00    -0.318 NA
ATOM      3  H   UNL     1      -1.833  -2.667   0.852  1.00  0.00     0.119 HD
ATOM      4  H   UNL     1      -2.251  -2.135  -0.616  1.00  0.00     0.119 HD
ENDBRANCH   1   2
BRANCH   1   5
ATOM      5  C   UNL     1      -0.091  -0.574  -1.071  1.00  0.00     0.040 C 
BRANCH   5   6
ATOM      6  C   UNL     1       0.745   0.703  -0.964  1.00  0.00     0.102 C 
BRANCH   6   7
ATOM      7  C   UNL     1       1.959   0.567  -0.071  1.00  0.00     0.217 C 
ATOM      8  N   UNL     1       2.634   1.735   0.137  1.00  0.00    -0.370 N 
ATOM      9  O   UNL     1       2.354  -0.482   0.421  1.00  0.00    -0.275 OA
ATOM     10  H   UNL     1       3.416   1.703   0.778  1.00  0.00     0.159 HD
ATOM     11  H   UNL     1       2.242   2.636  -0.096  1.00  0.00     0.159 HD
ENDBRANCH   6   7
ENDBRANCH   5   6
ENDBRANCH   1   5
BRANCH   1  12
ATOM     12  C   UNL     1      -1.762  -0.027   0.765  1.00  0.00     0.320 C 
ATOM     13  O   UNL     1      -2.973  -0.067   0.605  1.00  0.00    -0.251 OA
BRANCH  12  14
ATOM     14  O   UNL     1      -1.206   0.977   1.471  1.00  0.00    -0.480 OA
ATOM     15  H   UNL     1      -1.976   1.504   1.774  1.00  0.00     0.296 HD
ENDBRANCH  12  14
ENDBRANCH   1  12
TORSDOF 6
