REMARK SMILES CC(C)(C)c1nnc(NS(=O)(=O)c2ccccc2)s1
REMARK SMILES IDX 5 1 6 2 7 3 8 4 19 5 2 6 1 7 3 8 4 9 9 10 10 12 11 13 12 14
REMARK SMILES IDX 13 15 14 16 18 17 15 18 17 19 16 20
REMARK H PARENT 9 11
ROOT
ATOM      1  C   UNL     1      -1.983  -0.880  -0.248  1.00  0.00     0.124 A 
ATOM      2  N   UNL     1      -1.118  -0.818   0.747  1.00  0.00    -0.141 NA
ATOM      3  N   UNL     1       0.139  -0.424   0.336  1.00  0.00    -0.119 NA
ATOM      4  C   UNL     1       0.175  -0.182  -0.951  1.00  0.00     0.219 A 
ATOM      5  S   UNL     1      -1.284  -0.475  -1.779  1.00  0.00    -0.078 S 
ENDROOT
BRANCH   1   6
ATOM      6  C   UNL     1      -3.446  -1.273  -0.100  1.00  0.00     0.016 C 
ATOM      7  C   UNL     1      -4.366  -0.128  -0.563  1.00  0.00     0.018 C 
ATOM      8  C   UNL     1      -3.762  -1.567   1.382  1.00  0.00     0.018 C 
ATOM      9  C   UNL     1      -3.751  -2.545  -0.913  1.00  0.00     0.018 C 
ENDBRANCH   1   6
BRANCH   4  10
ATOM     10  N   UNL     1       1.390   0.212  -1.625  1.00  0.00    -0.253 N 
ATOM     11  H   UNL     1       1.378   0.087  -2.634  1.00  0.00     0.182 HD
BRANCH  10  12
ATOM     12  S   UNL     1       1.858   1.783  -1.252  1.00  0.00     0.263 S 
ATOM     13  O   UNL     1       0.797   2.499  -0.580  1.00  0.00    -0.201 OA
ATOM     14  O   UNL     1       2.425   2.303  -2.482  1.00  0.00    -0.201 OA
BRANCH  12  15
ATOM     15  C   UNL     1       3.190   1.517  -0.112  1.00  0.00     0.087 A 
ATOM     16  C   UNL     1       4.512   1.531  -0.566  1.00  0.00     0.022 A 
ATOM     17  C   UNL     1       2.904   1.343   1.245  1.00  0.00     0.022 A 
ATOM     18  C   UNL     1       5.553   1.346   0.345  1.00  0.00     0.001 A 
ATOM     19  C   UNL     1       3.950   1.157   2.149  1.00  0.00     0.001 A 
ATOM     20  C   UNL     1       5.271   1.157   1.699  1.00  0.00     0.000 A 
ENDBRANCH  12  15
ENDBRANCH  10  12
ENDBRANCH   4  10
TORSDOF 4
