REMARK SMILES Cc1cc2c(C(C)C)c(O)c(O)c(C=O)c2c(O)c1-c1c(C)cc2c(C(C)C)c(O)c(O)c(C=O)c2c1O
REMARK SMILES IDX 5 1 9 2 11 3 13 4 16 5 17 6 19 7 2 8 1 9 3 10 4 11 6 12 7 13
REMARK SMILES IDX 8 14 10 15 12 17 14 19 15 20 18 21 20 23 37 24 21 25 36 26
REMARK SMILES IDX 23 27 33 28 24 29 31 30 25 31 29 32 22 33 38 34 34 36 35 37
REMARK SMILES IDX 32 38 26 40 27 41 28 42 30 43
REMARK H PARENT 10 16 12 18 18 22 38 35 32 39 30 44
ROOT
ATOM      1  C   UNL     1      -5.079   0.110  -0.489  1.00  0.00     0.008 A 
ATOM      2  C   UNL     1      -5.847  -0.594   0.445  1.00  0.00     0.162 A 
ATOM      3  C   UNL     1      -5.275  -1.191   1.559  1.00  0.00     0.169 A 
ATOM      4  C   UNL     1      -3.898  -1.114   1.777  1.00  0.00     0.072 A 
ATOM      5  C   UNL     1      -3.037  -0.511   0.806  1.00  0.00     0.039 A 
ATOM      6  C   UNL     1      -1.604  -0.510   0.872  1.00  0.00     0.132 A 
ATOM      7  C   UNL     1      -0.770   0.083  -0.104  1.00  0.00     0.031 A 
ATOM      8  C   UNL     1      -1.385   0.727  -1.184  1.00  0.00    -0.039 A 
ATOM      9  C   UNL     1      -0.584   1.412  -2.262  1.00  0.00     0.045 C 
ATOM     10  C   UNL     1      -2.786   0.712  -1.283  1.00  0.00     0.013 A 
ATOM     11  C   UNL     1      -3.647   0.112  -0.330  1.00  0.00    -0.006 A 
ENDROOT
BRANCH   1  12
ATOM     12  C   UNL     1      -5.780   0.823  -1.655  1.00  0.00     0.017 C 
ATOM     13  C   UNL     1      -6.233  -0.176  -2.723  1.00  0.00     0.012 C 
ATOM     14  C   UNL     1      -6.931   1.749  -1.233  1.00  0.00     0.012 C 
ENDBRANCH   1  12
BRANCH   2  15
ATOM     15  O   UNL     1      -7.202  -0.729   0.294  1.00  0.00    -0.504 OA
ATOM     16  H   UNL     1      -7.489  -1.253   1.072  1.00  0.00     0.293 HD
ENDBRANCH   2  15
BRANCH   3  17
ATOM     17  O   UNL     1      -6.157  -1.827   2.406  1.00  0.00    -0.504 OA
ATOM     18  H   UNL     1      -5.624  -2.290   3.095  1.00  0.00     0.293 HD
ENDBRANCH   3  17
BRANCH   4  19
ATOM     19  C   UNL     1      -3.410  -1.635   3.076  1.00  0.00     0.264 C 
ATOM     20  O   UNL     1      -4.065  -2.469   3.703  1.00  0.00    -0.298 OA
ENDBRANCH   4  19
BRANCH   6  21
ATOM     21  O   UNL     1      -0.999  -1.170   1.922  1.00  0.00    -0.507 OA
ATOM     22  H   UNL     1      -0.095  -0.819   2.020  1.00  0.00     0.293 HD
ENDBRANCH   6  21
BRANCH   7  23
ATOM     23  C   UNL     1       0.711   0.005  -0.015  1.00  0.00     0.031 A 
ATOM     24  C   UNL     1       1.446   0.995   0.677  1.00  0.00     0.132 A 
ATOM     25  C   UNL     1       1.419  -1.041  -0.610  1.00  0.00    -0.039 A 
ATOM     26  C   UNL     1       2.880   1.014   0.778  1.00  0.00     0.039 A 
ATOM     27  C   UNL     1       2.816  -1.077  -0.479  1.00  0.00     0.013 A 
ATOM     28  C   UNL     1       3.669   2.026   1.420  1.00  0.00     0.072 A 
ATOM     29  C   UNL     1       3.581  -0.103   0.215  1.00  0.00    -0.006 A 
ATOM     30  C   UNL     1       5.053   1.907   1.522  1.00  0.00     0.169 A 
ATOM     31  C   UNL     1       5.011  -0.223   0.351  1.00  0.00     0.008 A 
ATOM     32  C   UNL     1       5.709   0.823   0.963  1.00  0.00     0.162 A 
ATOM     33  C   UNL     1       0.721  -2.159  -1.344  1.00  0.00     0.045 C 
BRANCH  24  34
ATOM     34  O   UNL     1       0.657   1.911   1.337  1.00  0.00    -0.507 OA
ATOM     35  H   UNL     1       1.034   2.810   1.204  1.00  0.00     0.293 HD
ENDBRANCH  24  34
BRANCH  28  36
ATOM     36  C   UNL     1       3.124   3.295   1.953  1.00  0.00     0.264 C 
ATOM     37  O   UNL     1       2.153   3.850   1.448  1.00  0.00    -0.298 OA
ENDBRANCH  28  36
BRANCH  30  38
ATOM     38  O   UNL     1       5.805   2.856   2.167  1.00  0.00    -0.504 OA
ATOM     39  H   UNL     1       6.637   2.414   2.433  1.00  0.00     0.293 HD
ENDBRANCH  30  38
BRANCH  31  40
ATOM     40  C   UNL     1       5.782  -1.444  -0.174  1.00  0.00     0.017 C 
ATOM     41  C   UNL     1       6.428  -1.142  -1.528  1.00  0.00     0.012 C 
ATOM     42  C   UNL     1       6.807  -2.032   0.809  1.00  0.00     0.012 C 
ENDBRANCH  31  40
BRANCH  32  43
ATOM     43  O   UNL     1       7.077   0.848   0.990  1.00  0.00    -0.504 OA
ATOM     44  H   UNL     1       7.342   1.656   0.508  1.00  0.00     0.293 HD
ENDBRANCH  32  43
ENDBRANCH   7  23
TORSDOF 11
