REMARK SMILES C=C[C@@H]1C[C@]1(NC(=O)[C@@H]1C[C@@H]2CN1C(=O)[C@H](C(C)(C)C)NC(=O)O[C@@H]1C[C@H]1CCCCCc1nc3ccc(OC)cc3nc1O2)C(=O)NS(=O)(=O)C1CC1
REMARK SMILES IDX 13 1 12 2 11 3 10 4 9 5 45 6 44 7 38 8 41 9 37 10 42 11
REMARK SMILES IDX 36 12 35 13 43 14 34 15 33 16 39 17 40 18 32 19 31 20 30 21
REMARK SMILES IDX 29 22 14 24 15 25 16 26 21 27 22 28 23 29 24 31 25 32 26 33
REMARK SMILES IDX 27 34 28 35 17 37 18 38 19 39 20 40 7 41 8 42 6 43 5 45 4 46
REMARK SMILES IDX 3 47 46 48 47 49 48 50 49 52 50 53 51 54 52 55 53 56 54 57
REMARK SMILES IDX 2 58 1 59
REMARK H PARENT 21 30 6 44 48 51
REMARK Flexibility Score:  109.900
ROOT
ATOM      1  N   UNL     1      -0.227  -1.342  -0.633  1.00  0.00    -0.325 N 
ATOM      2  C   UNL     1      -1.404  -0.883   0.112  1.00  0.00     0.165 C 
ATOM      3  C   UNL     1      -1.426   0.661   0.041  1.00  0.00     0.197 C 
ATOM      4  C   UNL     1      -0.062   1.024  -0.553  1.00  0.00     0.082 C 
ATOM      5  C   UNL     1       0.219  -0.190  -1.427  1.00  0.00     0.178 C 
ENDROOT
BRANCH   3   6
ATOM      6  O   UNL     1      -2.490   1.036  -0.847  1.00  0.00    -0.471 OA
BRANCH   6   7
ATOM      7  C   UNL     1      -3.086   2.224  -0.487  1.00  0.00     0.236 A 
ATOM      8  C   UNL     1      -2.714   6.626   1.171  1.00  0.00     0.121 A 
ATOM      9  C   UNL     1      -2.133   5.407   0.824  1.00  0.00     0.077 A 
ATOM     10  C   UNL     1      -4.087   6.792   1.002  1.00  0.00     0.049 A 
ATOM     11  C   UNL     1      -2.899   4.361   0.320  1.00  0.00     0.096 A 
ATOM     12  C   UNL     1      -4.866   5.749   0.499  1.00  0.00     0.034 A 
ATOM     13  C   UNL     1      -4.296   4.533   0.152  1.00  0.00     0.090 A 
ATOM     14  N   UNL     1      -2.294   3.203   0.000  1.00  0.00    -0.210 NA
ATOM     15  N   UNL     1      -5.073   3.547  -0.337  1.00  0.00    -0.246 NA
ATOM     16  C   UNL     1      -4.457   2.383  -0.671  1.00  0.00     0.103 A 
BRANCH   8  17
ATOM     17  O   UNL     1      -2.064   7.717   1.675  1.00  0.00    -0.497 OA
ATOM     18  C   UNL     1      -0.669   7.580   1.918  1.00  0.00     0.278 C 
ENDBRANCH   8  17
BRANCH  16  19
ATOM     19  C   UNL     1      -5.337   1.279  -1.194  1.00  0.00     0.062 C 
BRANCH  19  20
ATOM     20  C   UNL     1      -6.057   0.483  -0.096  1.00  0.00     0.007 C 
BRANCH  20  21
ATOM     21  C   UNL     1      -5.097  -0.288   0.812  1.00  0.00     0.000 C 
BRANCH  21  22
ATOM     22  C   UNL     1      -5.786  -1.272   1.762  1.00  0.00     0.000 CG0
ATOM     23  G   UNL     1      -6.428  -2.493   1.093  1.00  0.00     0.000 G0
ENDBRANCH  21  22
ENDBRANCH  20  21
ENDBRANCH  19  20
ENDBRANCH  16  19
ENDBRANCH   6   7
ENDBRANCH   3   6
BRANCH   1  24
ATOM     24  C   UNL     1       0.699  -1.975   0.210  1.00  0.00     0.246 C 
ATOM     25  O   UNL     1       1.703  -1.387   0.612  1.00  0.00    -0.272 OA
BRANCH  24  26
ATOM     26  C   UNL     1       0.415  -3.481   0.536  1.00  0.00     0.180 C 
BRANCH  26  27
ATOM     27  N   UNL     1      -0.925  -3.893   0.110  1.00  0.00    -0.309 N 
ATOM     28  C   UNL     1      -1.994  -3.933   0.954  1.00  0.00     0.408 C 
ATOM     29  O   UNL     1      -1.946  -3.742   2.159  1.00  0.00    -0.225 OA
ATOM     30  H   UNL     1      -1.154  -3.863  -0.874  1.00  0.00     0.167 HD
BRANCH  28  31
ATOM     31  O   UNL     1      -3.125  -4.164   0.238  1.00  0.00    -0.446 OA
BRANCH  31  32
ATOM     32  C   UNL     1      -4.384  -4.123   0.943  1.00  0.00     0.182 C 
ATOM     33  C   UNL     1      -5.537  -4.796   0.245  1.00  0.00     0.053 C 
ATOM     34  C   UNL     1      -5.456  -3.294   0.277  1.00  0.00     0.034 C 
BRANCH  34  35
ATOM     35  C   UNL     1      -6.428  -2.493   1.093  1.00  0.00     0.007 CG0
ATOM     36  G   UNL     1      -5.786  -1.272   1.762  1.00  0.00     0.000 G0
ENDBRANCH  34  35
ENDBRANCH  31  32
ENDBRANCH  28  31
ENDBRANCH  26  27
BRANCH  26  37
ATOM     37  C   UNL     1       1.500  -4.443  -0.059  1.00  0.00    -0.009 C 
ATOM     38  C   UNL     1       1.163  -5.904   0.321  1.00  0.00     0.013 C 
ATOM     39  C   UNL     1       1.575  -4.346  -1.595  1.00  0.00     0.013 C 
ATOM     40  C   UNL     1       2.895  -4.135   0.522  1.00  0.00     0.013 C 
ENDBRANCH  26  37
ENDBRANCH  24  26
ENDBRANCH   1  24
BRANCH   5  41
ATOM     41  C   UNL     1       1.591  -0.253  -2.138  1.00  0.00     0.243 C 
ATOM     42  O   UNL     1       1.672  -0.616  -3.311  1.00  0.00    -0.273 OA
ATOM     43  N   UNL     1       2.675   0.057  -1.346  1.00  0.00    -0.339 N 
ATOM     44  H   UNL     1       2.513  -0.088  -0.341  1.00  0.00     0.164 HD
BRANCH  43  45
ATOM     45  C   UNL     1       4.089   0.014  -1.708  1.00  0.00     0.127 C 
ATOM     46  C   UNL     1       4.587  -0.276  -3.118  1.00  0.00     0.050 C 
ATOM     47  C   UNL     1       4.667  -1.356  -2.079  1.00  0.00     0.049 C 
BRANCH  45  48
ATOM     48  C   UNL     1       4.924   0.939  -0.834  1.00  0.00     0.259 C 
ATOM     49  O   UNL     1       4.987   0.763   0.374  1.00  0.00    -0.271 OA
ATOM     50  N   UNL     1       5.530   2.010  -1.493  1.00  0.00    -0.251 N 
ATOM     51  H   UNL     1       5.314   2.206  -2.464  1.00  0.00     0.183 HD
BRANCH  50  52
ATOM     52  S   UNL     1       6.282   3.265  -0.718  1.00  0.00     0.237 S 
ATOM     53  O   UNL     1       5.247   4.088  -0.131  1.00  0.00    -0.206 OA
ATOM     54  O   UNL     1       7.189   3.824  -1.699  1.00  0.00    -0.206 OA
BRANCH  52  55
ATOM     55  C   UNL     1       7.335   2.594   0.598  1.00  0.00     0.129 C 
ATOM     56  C   UNL     1       6.878   2.846   2.009  1.00  0.00     0.023 C 
ATOM     57  C   UNL     1       8.004   3.657   1.432  1.00  0.00     0.023 C 
ENDBRANCH  52  55
ENDBRANCH  50  52
ENDBRANCH  45  48
BRANCH  47  58
ATOM     58  C   UNL     1       5.999  -1.790  -1.643  1.00  0.00    -0.028 C 
ATOM     59  C   UNL     1       6.345  -2.125  -0.393  1.00  0.00     0.004 C 
ENDBRANCH  47  58
ENDBRANCH  43  45
ENDBRANCH   5  41
TORSDOF 8
