REMARK SMILES CC1(c2ccccc2)C(=O)NC(=O)NC1=O
REMARK SMILES IDX 1 1 2 2 9 3 10 4 11 5 12 6 13 7 14 8 15 9 16 10 3 13 4 14
REMARK SMILES IDX 8 15 5 16 7 17 6 18
REMARK H PARENT 11 11 14 12
ROOT
ATOM      1  C   UNL     1       0.265  -0.644  -2.202  1.00  0.00     0.038 C 
ATOM      2  C   UNL     1       0.578  -0.398  -0.710  1.00  0.00     0.150 C 
ATOM      3  C   UNL     1       0.864  -1.737  -0.021  1.00  0.00     0.247 C 
ATOM      4  O   UNL     1       0.489  -2.828  -0.443  1.00  0.00    -0.273 OA
ATOM      5  N   UNL     1       1.575  -1.656   1.145  1.00  0.00    -0.277 N 
ATOM      6  C   UNL     1       2.582  -0.762   1.317  1.00  0.00     0.328 C 
ATOM      7  O   UNL     1       3.527  -1.018   2.053  1.00  0.00    -0.248 OA
ATOM      8  N   UNL     1       2.549   0.368   0.556  1.00  0.00    -0.277 N 
ATOM      9  C   UNL     1       1.844   0.457  -0.620  1.00  0.00     0.247 C 
ATOM     10  O   UNL     1       2.237   1.203  -1.519  1.00  0.00    -0.273 OA
ATOM     11  H   UNL     1       1.749  -2.548   1.589  1.00  0.00     0.174 HD
ATOM     12  H   UNL     1       3.395   0.916   0.589  1.00  0.00     0.174 HD
ENDROOT
BRANCH   2  13
ATOM     13  C   UNL     1      -0.653   0.278  -0.070  1.00  0.00    -0.023 A 
ATOM     14  C   UNL     1      -0.658   1.632   0.317  1.00  0.00     0.005 A 
ATOM     15  C   UNL     1      -1.846  -0.457   0.092  1.00  0.00     0.005 A 
ATOM     16  C   UNL     1      -1.812   2.217   0.848  1.00  0.00     0.000 A 
ATOM     17  C   UNL     1      -2.997   0.134   0.617  1.00  0.00     0.000 A 
ATOM     18  C   UNL     1      -2.981   1.468   0.992  1.00  0.00     0.000 A 
ENDBRANCH   2  13
TORSDOF 1
