REMARK SMILES C#CCC1(OC(N)=O)CCCCC1
REMARK SMILES IDX 4 1 9 2 10 3 11 4 12 5 13 6 5 7 6 8 7 9 8 10 3 13 2 14 1 15
REMARK H PARENT 7 11 7 12
ROOT
ATOM      1  C   UNL     1       0.314   0.268  -0.149  1.00  0.00     0.125 C 
ATOM      2  C   UNL     1      -0.665   0.225  -1.349  1.00  0.00     0.050 C 
ATOM      3  C   UNL     1      -2.092   0.624  -0.983  1.00  0.00     0.004 C 
ATOM      4  C   UNL     1      -2.600  -0.030   0.303  1.00  0.00     0.000 C 
ATOM      5  C   UNL     1      -1.637  -1.063   0.876  1.00  0.00     0.004 C 
ATOM      6  C   UNL     1      -0.250  -0.460   1.103  1.00  0.00     0.050 C 
ENDROOT
BRANCH   1   7
ATOM      7  O   UNL     1       1.599  -0.287  -0.569  1.00  0.00    -0.442 OA
BRANCH   7   8
ATOM      8  C   UNL     1       1.725  -1.593  -0.872  1.00  0.00     0.405 C 
ATOM      9  N   UNL     1       3.005  -1.854  -1.218  1.00  0.00    -0.335 N 
ATOM     10  O   UNL     1       0.855  -2.446  -0.844  1.00  0.00    -0.225 OA
ATOM     11  H   UNL     1       3.277  -2.813  -1.369  1.00  0.00     0.163 HD
ATOM     12  H   UNL     1       3.702  -1.135  -1.098  1.00  0.00     0.163 HD
ENDBRANCH   7   8
ENDBRANCH   1   7
BRANCH   1  13
ATOM     13  C   UNL     1       0.618   1.759   0.184  1.00  0.00     0.138 C 
ATOM     14  C   UNL     1       1.623   1.931   1.254  1.00  0.00    -0.103 C 
ATOM     15  C   UNL     1       2.438   2.077   2.124  1.00  0.00     0.004 C 
ENDBRANCH   1  13
TORSDOF 3
