REMARK SMILES Oc1c(Cl)cc(Cl)c(Cl)c1Cc1c(O)c(Cl)cc(Cl)c1Cl
REMARK SMILES IDX 11 1 10 2 2 3 3 4 5 5 8 6 6 7 4 8 9 9 7 10 1 11 12 13 20 14
REMARK SMILES IDX 13 15 18 16 15 17 17 18 21 19 19 20 16 21 14 22
REMARK H PARENT 1 12 14 23
ROOT
ATOM      1  C   UNL     1       0.049  -0.408   1.360  1.00  0.00     0.082 C 
ENDROOT
BRANCH   1   2
ATOM      2  C   UNL     1      -1.245  -0.250   0.573  1.00  0.00     0.020 A 
ATOM      3  C   UNL     1      -1.980  -1.394   0.206  1.00  0.00     0.139 A 
ATOM      4  C   UNL     1      -3.160  -1.294  -0.540  1.00  0.00     0.084 A 
ATOM      5  C   UNL     1      -3.645  -0.051  -0.923  1.00  0.00     0.046 A 
ATOM      6  C   UNL     1      -1.763   1.012   0.205  1.00  0.00     0.067 A 
ATOM      7  C   UNL     1      -2.952   1.101  -0.546  1.00  0.00     0.061 A 
ATOM      8  Cl  UNL     1      -4.032  -2.713  -0.992  1.00  0.00    -0.080 Cl
ATOM      9  Cl  UNL     1      -0.957   2.470   0.700  1.00  0.00    -0.082 Cl
ATOM     10  Cl  UNL     1      -3.630   2.615  -1.044  1.00  0.00    -0.083 Cl
BRANCH   3  11
ATOM     11  O   UNL     1      -1.525  -2.627   0.600  1.00  0.00    -0.506 OA
ATOM     12  H   UNL     1      -2.123  -3.301   0.225  1.00  0.00     0.293 HD
ENDBRANCH   3  11
ENDBRANCH   1   2
BRANCH   1  13
ATOM     13  C   UNL     1       1.319   0.124   0.704  1.00  0.00     0.020 A 
ATOM     14  C   UNL     1       2.225   0.963   1.399  1.00  0.00     0.067 A 
ATOM     15  C   UNL     1       1.660  -0.254  -0.609  1.00  0.00     0.139 A 
ATOM     16  C   UNL     1       3.392   1.435   0.762  1.00  0.00     0.061 A 
ATOM     17  C   UNL     1       2.822   0.220  -1.230  1.00  0.00     0.084 A 
ATOM     18  C   UNL     1       3.685   1.069  -0.551  1.00  0.00     0.046 A 
ATOM     19  Cl  UNL     1       1.925   1.409   3.053  1.00  0.00    -0.082 Cl
ATOM     20  Cl  UNL     1       4.529   2.476   1.551  1.00  0.00    -0.083 Cl
ATOM     21  Cl  UNL     1       3.204  -0.251  -2.845  1.00  0.00    -0.080 Cl
BRANCH  15  22
ATOM     22  O   UNL     1       0.837  -1.117  -1.288  1.00  0.00    -0.506 OA
ATOM     23  H   UNL     1       1.237  -1.290  -2.161  1.00  0.00     0.293 HD
ENDBRANCH  15  22
ENDBRANCH   1  13
TORSDOF 4
