REMARK SMILES CC[C@H](c1ccc(O)cc1)[C@@H](CC)c1ccc(O)cc1
REMARK SMILES IDX 3 1 2 2 1 3 11 4 12 5 13 6 14 7 15 8 20 9 16 10 19 11 17 12
REMARK SMILES IDX 18 13 4 15 5 16 10 17 6 18 9 19 7 20 8 21
REMARK H PARENT 18 14 8 22
ROOT
ATOM      1  C   UNL     1       0.425  -0.358  -0.544  1.00  0.00     0.026 C 
ENDROOT
BRANCH   1   2
ATOM      2  C   UNL     1       0.003  -1.846  -0.684  1.00  0.00     0.005 C 
ATOM      3  C   UNL     1       0.706  -2.573  -1.827  1.00  0.00     0.004 C 
ENDBRANCH   1   2
BRANCH   1   4
ATOM      4  C   UNL     1      -0.417   0.397   0.549  1.00  0.00     0.026 C 
BRANCH   4   5
ATOM      5  C   UNL     1       0.005   1.885   0.688  1.00  0.00     0.005 C 
ATOM      6  C   UNL     1      -0.697   2.612   1.831  1.00  0.00     0.004 C 
ENDBRANCH   4   5
BRANCH   4   7
ATOM      7  C   UNL     1      -1.918   0.294   0.282  1.00  0.00    -0.044 A 
ATOM      8  C   UNL     1      -2.749  -0.351   1.214  1.00  0.00     0.008 A 
ATOM      9  C   UNL     1      -2.499   0.830  -0.879  1.00  0.00     0.008 A 
ATOM     10  C   UNL     1      -4.124  -0.460   0.991  1.00  0.00     0.046 A 
ATOM     11  C   UNL     1      -3.872   0.721  -1.101  1.00  0.00     0.046 A 
ATOM     12  C   UNL     1      -4.673   0.078  -0.167  1.00  0.00     0.115 A 
BRANCH  12  13
ATOM     13  O   UNL     1      -6.010  -0.005  -0.425  1.00  0.00    -0.508 OA
ATOM     14  H   UNL     1      -6.437  -0.472   0.311  1.00  0.00     0.293 HD
ENDBRANCH  12  13
ENDBRANCH   4   7
ENDBRANCH   1   4
BRANCH   1  15
ATOM     15  C   UNL     1       1.927  -0.255  -0.277  1.00  0.00    -0.044 A 
ATOM     16  C   UNL     1       2.509  -0.796   0.882  1.00  0.00     0.008 A 
ATOM     17  C   UNL     1       2.756   0.395  -1.206  1.00  0.00     0.008 A 
ATOM     18  C   UNL     1       3.883  -0.689   1.108  1.00  0.00     0.046 A 
ATOM     19  C   UNL     1       4.129   0.502  -0.980  1.00  0.00     0.046 A 
ATOM     20  C   UNL     1       4.682  -0.039   0.173  1.00  0.00     0.115 A 
BRANCH  20  21
ATOM     21  O   UNL     1       6.027   0.088   0.353  1.00  0.00    -0.508 OA
ATOM     22  H   UNL     1       6.268  -0.339   1.192  1.00  0.00     0.293 HD
ENDBRANCH  20  21
ENDBRANCH   1  15
TORSDOF 7
