REMARK SMILES COc1cc(C(=O)OCCCN(C)CCN(C)CCCOC(=O)c2cc(OC)c(OC)c(OC)c2)cc(OC)c1OC
REMARK SMILES IDX 14 1 12 2 13 3 11 4 10 5 9 6 8 7 6 8 7 9 5 10 3 11 4 12
REMARK SMILES IDX 40 13 37 14 36 15 2 16 1 17 41 18 42 19 38 20 39 21 15 22
REMARK SMILES IDX 16 23 17 24 18 25 19 26 20 27 21 28 22 29 23 30 24 31 25 32
REMARK SMILES IDX 35 33 26 34 32 35 29 36 27 37 28 38 33 39 34 40 30 41 31 42
REMARK H PARENT
ROOT
ATOM      1  C   UNL     1       0.072  -2.690   0.395  1.00  0.00     0.099 C 
ENDROOT
BRANCH   1   2
ATOM      2  N   UNL     1      -0.701  -1.526  -0.109  1.00  0.00    -0.305 NA
ATOM      3  C   UNL     1       0.013  -0.269   0.150  1.00  0.00     0.105 C 
BRANCH   2   4
ATOM      4  C   UNL     1      -2.039  -1.456   0.527  1.00  0.00     0.087 C 
BRANCH   4   5
ATOM      5  C   UNL     1      -2.998  -2.554   0.046  1.00  0.00     0.057 C 
BRANCH   5   6
ATOM      6  C   UNL     1      -4.374  -2.450   0.700  1.00  0.00     0.234 C 
BRANCH   6   7
ATOM      7  O   UNL     1      -5.129  -1.357   0.153  1.00  0.00    -0.462 OA
BRANCH   7   8
ATOM      8  C   UNL     1      -5.241  -0.247   0.920  1.00  0.00     0.338 C 
ATOM      9  O   UNL     1      -4.693  -0.060   1.995  1.00  0.00    -0.246 OA
BRANCH   8  10
ATOM     10  C   UNL     1      -6.137   0.752   0.271  1.00  0.00     0.067 A 
ATOM     11  C   UNL     1      -7.145   2.960   0.358  1.00  0.00     0.165 A 
ATOM     12  C   UNL     1      -6.305   1.991   0.911  1.00  0.00     0.066 A 
ATOM     13  C   UNL     1      -7.831   2.666  -0.835  1.00  0.00     0.203 A 
ATOM     14  C   UNL     1      -7.654   1.439  -1.498  1.00  0.00     0.165 A 
ATOM     15  C   UNL     1      -6.809   0.481  -0.933  1.00  0.00     0.066 A 
BRANCH  11  16
ATOM     16  O   UNL     1      -7.369   4.199   0.898  1.00  0.00    -0.493 OA
ATOM     17  C   UNL     1      -6.562   4.589   2.005  1.00  0.00     0.278 C 
ENDBRANCH  11  16
BRANCH  13  18
ATOM     18  O   UNL     1      -8.628   3.626  -1.421  1.00  0.00    -0.490 OA
ATOM     19  C   UNL     1      -9.934   3.593  -0.841  1.00  0.00     0.278 C 
ENDBRANCH  13  18
BRANCH  14  20
ATOM     20  O   UNL     1      -8.361   1.271  -2.663  1.00  0.00    -0.493 OA
ATOM     21  C   UNL     1      -8.101   0.102  -3.427  1.00  0.00     0.278 C 
ENDBRANCH  14  20
ENDBRANCH   8  10
ENDBRANCH   7   8
ENDBRANCH   6   7
ENDBRANCH   5   6
ENDBRANCH   4   5
ENDBRANCH   2   4
ENDBRANCH   1   2
BRANCH   1  22
ATOM     22  C   UNL     1       1.450  -2.900  -0.286  1.00  0.00     0.099 C 
BRANCH  22  23
ATOM     23  N   UNL     1       2.152  -4.112   0.199  1.00  0.00    -0.305 NA
ATOM     24  C   UNL     1       1.592  -5.325  -0.410  1.00  0.00     0.105 C 
BRANCH  23  25
ATOM     25  C   UNL     1       3.603  -4.029  -0.056  1.00  0.00     0.087 C 
BRANCH  25  26
ATOM     26  C   UNL     1       4.380  -3.854   1.255  1.00  0.00     0.057 C 
BRANCH  26  27
ATOM     27  C   UNL     1       4.114  -2.533   1.970  1.00  0.00     0.234 C 
BRANCH  27  28
ATOM     28  O   UNL     1       4.539  -1.417   1.168  1.00  0.00    -0.462 OA
BRANCH  28  29
ATOM     29  C   UNL     1       5.832  -1.038   1.330  1.00  0.00     0.338 C 
ATOM     30  O   UNL     1       6.651  -1.573   2.061  1.00  0.00    -0.246 OA
BRANCH  29  31
ATOM     31  C   UNL     1       6.150   0.145   0.482  1.00  0.00     0.067 A 
ATOM     32  C   UNL     1       5.187   0.763  -0.333  1.00  0.00     0.066 A 
ATOM     33  C   UNL     1       7.465   0.642   0.524  1.00  0.00     0.066 A 
ATOM     34  C   UNL     1       5.534   1.872  -1.109  1.00  0.00     0.165 A 
ATOM     35  C   UNL     1       7.828   1.751  -0.239  1.00  0.00     0.165 A 
ATOM     36  C   UNL     1       6.849   2.371  -1.038  1.00  0.00     0.203 A 
BRANCH  34  37
ATOM     37  O   UNL     1       4.670   2.545  -1.937  1.00  0.00    -0.493 OA
ATOM     38  C   UNL     1       3.435   1.914  -2.246  1.00  0.00     0.278 C 
ENDBRANCH  34  37
BRANCH  35  39
ATOM     39  O   UNL     1       9.080   2.308  -0.265  1.00  0.00    -0.493 OA
ATOM     40  C   UNL     1      10.133   1.581   0.357  1.00  0.00     0.278 C 
ENDBRANCH  35  39
BRANCH  36  41
ATOM     41  O   UNL     1       7.204   3.444  -1.829  1.00  0.00    -0.490 OA
ATOM     42  C   UNL     1       7.015   4.659  -1.110  1.00  0.00     0.278 C 
ENDBRANCH  36  41
ENDBRANCH  29  31
ENDBRANCH  28  29
ENDBRANCH  27  28
ENDBRANCH  26  27
ENDBRANCH  25  26
ENDBRANCH  23  25
ENDBRANCH  22  23
ENDBRANCH   1  22
TORSDOF 21
