REMARK SMILES NNc1nncc2ccccc12
REMARK SMILES IDX 1 1 2 4 3 6 4 7 12 8 5 9 11 10 7 11 6 12 10 13 8 14 9 15
REMARK H PARENT 1 2 1 3 2 5
ROOT
ATOM      1  N   UNL     1       3.680  -0.313  -0.027  1.00  0.00    -0.249 NA
ATOM      2  H   UNL     1       3.895   0.430  -0.701  1.00  0.00     0.143 HD
ATOM      3  H   UNL     1       3.753   0.165   0.880  1.00  0.00     0.143 HD
ENDROOT
BRANCH   1   4
ATOM      4  N   UNL     1       2.333  -0.726  -0.231  1.00  0.00    -0.306 N 
ATOM      5  H   UNL     1       2.113  -1.621   0.213  1.00  0.00     0.183 HD
BRANCH   4   6
ATOM      6  C   UNL     1       1.308   0.209   0.123  1.00  0.00     0.170 A 
ATOM      7  N   UNL     1       1.663   1.418   0.630  1.00  0.00    -0.131 NA
ATOM      8  C   UNL     1      -0.049  -0.131  -0.081  1.00  0.00     0.029 A 
ATOM      9  N   UNL     1       0.717   2.329   0.993  1.00  0.00    -0.156 NA
ATOM     10  C   UNL     1      -0.500  -1.350  -0.646  1.00  0.00     0.013 A 
ATOM     11  C   UNL     1      -1.021   0.815   0.299  1.00  0.00     0.006 A 
ATOM     12  C   UNL     1      -0.583   2.022   0.830  1.00  0.00     0.144 A 
ATOM     13  C   UNL     1      -1.862  -1.619  -0.807  1.00  0.00     0.001 A 
ATOM     14  C   UNL     1      -2.390   0.534   0.135  1.00  0.00     0.010 A 
ATOM     15  C   UNL     1      -2.806  -0.678  -0.413  1.00  0.00     0.001 A 
ENDBRANCH   4   6
ENDBRANCH   1   4
TORSDOF 2
