REMARK SMILES OCCOCCN1CCN(C(c2ccccc2)c2ccc(Cl)cc2)CC1
REMARK SMILES IDX 5 1 4 2 3 3 2 4 1 5 6 7 7 8 8 9 26 10 9 11 25 12 10 13 11 14
REMARK SMILES IDX 12 15 13 16 17 17 14 18 16 19 15 20 18 21 19 22 24 23 20 24
REMARK SMILES IDX 23 25 21 26 22 27
REMARK H PARENT 1 6
ROOT
ATOM      1  C   UNL     1       3.734  -0.215  -0.025  1.00  0.00     0.175 C 
ENDROOT
BRANCH   1   2
ATOM      2  O   UNL     1       4.848   0.287   0.720  1.00  0.00    -0.378 OA
BRANCH   2   3
ATOM      3  C   UNL     1       5.986  -0.580   0.689  1.00  0.00     0.188 C 
BRANCH   3   4
ATOM      4  C   UNL     1       6.689  -0.589  -0.669  1.00  0.00     0.184 C 
BRANCH   4   5
ATOM      5  O   UNL     1       6.024  -1.466  -1.578  1.00  0.00    -0.394 OA
ATOM      6  H   UNL     1       6.493  -1.397  -2.427  1.00  0.00     0.210 HD
ENDBRANCH   4   5
ENDBRANCH   3   4
ENDBRANCH   2   3
ENDBRANCH   1   2
BRANCH   1   7
ATOM      7  C   UNL     1       2.463   0.584   0.330  1.00  0.00     0.113 C 
BRANCH   7   8
ATOM      8  N   UNL     1       1.944   0.295   1.687  1.00  0.00    -0.299 NA
ATOM      9  C   UNL     1       1.044   1.368   2.139  1.00  0.00     0.100 C 
ATOM     10  C   UNL     1       1.224  -0.997   1.740  1.00  0.00     0.100 C 
ATOM     11  C   UNL     1      -0.306   1.462   1.378  1.00  0.00     0.101 C 
ATOM     12  C   UNL     1      -0.328  -0.921   1.682  1.00  0.00     0.101 C 
ATOM     13  N   UNL     1      -0.800   0.178   0.815  1.00  0.00    -0.290 NA
BRANCH  13  14
ATOM     14  C   UNL     1      -2.281   0.177   0.651  1.00  0.00     0.117 C 
BRANCH  14  15
ATOM     15  C   UNL     1      -2.812   1.382  -0.137  1.00  0.00    -0.026 A 
ATOM     16  C   UNL     1      -3.898   2.122   0.362  1.00  0.00     0.006 A 
ATOM     17  C   UNL     1      -2.260   1.760  -1.374  1.00  0.00     0.006 A 
ATOM     18  C   UNL     1      -4.407   3.211  -0.348  1.00  0.00     0.000 A 
ATOM     19  C   UNL     1      -2.769   2.849  -2.082  1.00  0.00     0.000 A 
ATOM     20  C   UNL     1      -3.842   3.574  -1.569  1.00  0.00     0.000 A 
ENDBRANCH  14  15
BRANCH  14  21
ATOM     21  C   UNL     1      -2.821  -1.117   0.023  1.00  0.00    -0.026 A 
ATOM     22  C   UNL     1      -3.990  -1.707   0.536  1.00  0.00     0.007 A 
ATOM     23  C   UNL     1      -2.196  -1.719  -1.084  1.00  0.00     0.007 A 
ATOM     24  C   UNL     1      -4.509  -2.873  -0.034  1.00  0.00     0.021 A 
ATOM     25  C   UNL     1      -2.715  -2.884  -1.653  1.00  0.00     0.021 A 
ATOM     26  C   UNL     1      -3.869  -3.456  -1.125  1.00  0.00     0.041 A 
ATOM     27  Cl  UNL     1      -4.509  -4.892  -1.824  1.00  0.00    -0.084 Cl
ENDBRANCH  14  21
ENDBRANCH  13  14
ENDBRANCH   7   8
ENDBRANCH   1   7
TORSDOF 9
