REMARK SMILES CCN(CC)CC(=O)OCC(=O)[C@@]1(O)CC[C@H]2[C@@H]3CCC4=CC(=O)CC[C@]4(C)[C@H]3[C@@H](O)C[C@@]21C
REMARK SMILES IDX 9 1 7 2 8 3 6 4 3 5 2 6 1 7 4 8 5 9 10 10 11 11 12 12 13 13
REMARK SMILES IDX 15 14 33 15 16 16 32 17 17 18 30 19 18 20 29 21 19 22 27 23
REMARK SMILES IDX 20 24 26 25 21 26 25 27 22 28 23 29 24 30 34 31 28 32 14 33
REMARK SMILES IDX 31 35
REMARK H PARENT 14 34 31 36
ROOT
ATOM      1  O   UNL     1       4.000   1.141   0.521  1.00  0.00    -0.457 OA
ENDROOT
BRANCH   1   2
ATOM      2  C   UNL     1       4.848   0.124   0.858  1.00  0.00     0.320 C 
ATOM      3  O   UNL     1       4.551  -0.771   1.637  1.00  0.00    -0.251 OA
BRANCH   2   4
ATOM      4  C   UNL     1       6.184   0.334   0.146  1.00  0.00     0.207 C 
BRANCH   4   5
ATOM      5  N   UNL     1       7.106  -0.821   0.114  1.00  0.00    -0.294 NA
BRANCH   5   6
ATOM      6  C   UNL     1       6.772  -1.844  -0.879  1.00  0.00     0.081 C 
ATOM      7  C   UNL     1       5.599  -2.767  -0.572  1.00  0.00     0.021 C 
ENDBRANCH   5   6
BRANCH   5   8
ATOM      8  C   UNL     1       7.497  -1.305   1.439  1.00  0.00     0.081 C 
ATOM      9  C   UNL     1       8.785  -2.122   1.411  1.00  0.00     0.021 C 
ENDBRANCH   5   8
ENDBRANCH   4   5
ENDBRANCH   2   4
ENDBRANCH   1   2
BRANCH   1  10
ATOM     10  C   UNL     1       2.732   1.070   1.169  1.00  0.00     0.311 C 
BRANCH  10  11
ATOM     11  C   UNL     1       1.814   2.198   0.711  1.00  0.00     0.202 C 
ATOM     12  O   UNL     1       2.223   3.102  -0.020  1.00  0.00    -0.293 OA
BRANCH  11  13
ATOM     13  C   UNL     1       0.335   2.115   1.178  1.00  0.00     0.132 C 
ATOM     14  C   UNL     1      -0.288   3.533   1.329  1.00  0.00     0.044 C 
ATOM     15  C   UNL     1      -0.627   1.415   0.157  1.00  0.00     0.009 C 
ATOM     16  C   UNL     1      -1.756   3.424   0.874  1.00  0.00     0.008 C 
ATOM     17  C   UNL     1      -0.682  -0.129   0.196  1.00  0.00     0.042 C 
ATOM     18  C   UNL     1      -1.989   1.929   0.681  1.00  0.00     0.002 C 
ATOM     19  C   UNL     1      -1.878  -0.721  -0.582  1.00  0.00     0.119 C 
ATOM     20  C   UNL     1      -3.190   1.484  -0.170  1.00  0.00    -0.000 C 
ATOM     21  C   UNL     1      -3.245  -0.077  -0.199  1.00  0.00     0.031 C 
ATOM     22  C   UNL     1      -4.496   2.049   0.412  1.00  0.00     0.009 C 
ATOM     23  C   UNL     1      -4.501  -0.630  -0.986  1.00  0.00    -0.005 C 
ATOM     24  C   UNL     1      -5.718   1.566  -0.356  1.00  0.00     0.032 C 
ATOM     25  C   UNL     1      -4.589  -2.165  -0.740  1.00  0.00     0.020 C 
ATOM     26  C   UNL     1      -5.766   0.060  -0.453  1.00  0.00    -0.060 C 
ATOM     27  C   UNL     1      -5.943  -2.765  -1.087  1.00  0.00     0.081 C 
ATOM     28  C   UNL     1      -6.891  -0.595  -0.117  1.00  0.00     0.047 C 
ATOM     29  C   UNL     1      -7.035  -2.053  -0.334  1.00  0.00     0.155 C 
ATOM     30  O   UNL     1      -8.057  -2.623   0.040  1.00  0.00    -0.295 OA
ATOM     31  C   UNL     1      -0.310   1.905  -1.284  1.00  0.00     0.015 C 
ATOM     32  C   UNL     1      -4.448  -0.367  -2.508  1.00  0.00     0.016 C 
BRANCH  13  33
ATOM     33  O   UNL     1       0.246   1.527   2.481  1.00  0.00    -0.381 OA
ATOM     34  H   UNL     1       0.426   0.575   2.441  1.00  0.00     0.212 HD
ENDBRANCH  13  33
BRANCH  19  35
ATOM     35  O   UNL     1      -1.630  -0.622  -1.976  1.00  0.00    -0.393 OA
ATOM     36  H   UNL     1      -0.833  -1.141  -2.180  1.00  0.00     0.210 HD
ENDBRANCH  19  35
ENDBRANCH  11  13
ENDBRANCH  10  11
ENDBRANCH   1  10
TORSDOF 10
