REMARK SMILES N/N=c1/ccc(C(N)=O)n[nH]1
REMARK SMILES IDX 2 1 3 2 11 3 10 4 6 5 5 6 4 7 1 9 7 12 8 13 9 14
REMARK H PARENT 11 8 1 10 1 11 8 15 8 16
ROOT
ATOM      1  N   UNL     1       2.800  -0.187  -0.401  1.00  0.00    -0.164 NA
ATOM      2  C   UNL     1       1.504  -0.212  -0.231  1.00  0.00     0.165 C 
ATOM      3  N   UNL     1       0.745   0.871   0.166  1.00  0.00    -0.259 N 
ATOM      4  N   UNL     1      -0.612   0.893   0.321  1.00  0.00    -0.169 NA
ATOM      5  C   UNL     1      -1.201  -0.248   0.086  1.00  0.00     0.148 C 
ATOM      6  C   UNL     1      -0.522  -1.510  -0.328  1.00  0.00     0.040 C 
ATOM      7  C   UNL     1       0.806  -1.497  -0.489  1.00  0.00     0.053 C 
ATOM      8  H   UNL     1       1.282   1.731   0.257  1.00  0.00     0.192 HD
ENDROOT
BRANCH   1   9
ATOM      9  N   UNL     1       3.381   1.014  -0.124  1.00  0.00    -0.321 N 
ATOM     10  H   UNL     1       3.789   0.969   0.816  1.00  0.00     0.179 HD
ATOM     11  H   UNL     1       4.207   1.114  -0.723  1.00  0.00     0.179 HD
ENDBRANCH   1   9
BRANCH   5  12
ATOM     12  C   UNL     1      -2.724  -0.315   0.242  1.00  0.00     0.269 C 
ATOM     13  N   UNL     1      -3.319   0.874   0.558  1.00  0.00    -0.364 N 
ATOM     14  O   UNL     1      -3.340  -1.358   0.094  1.00  0.00    -0.268 OA
ATOM     15  H   UNL     1      -2.746   1.699   0.697  1.00  0.00     0.160 HD
ATOM     16  H   UNL     1      -4.316   0.913   0.704  1.00  0.00     0.160 HD
ENDBRANCH   5  12
TORSDOF 2
