REMARK SMILES CC(=O)Oc1ccc2c(c1)CC[C@@H]1[C@@H]2CC[C@]2(C)C(=O)[C@H](OC(C)=O)C[C@@H]12
REMARK SMILES IDX 21 1 26 2 27 3 13 4 12 5 11 6 9 7 8 8 7 9 6 10 5 11 10 12
REMARK SMILES IDX 14 13 15 14 16 15 17 16 18 17 19 18 20 19 22 20 23 21 25 22
REMARK SMILES IDX 24 23 4 24 2 25 3 26 1 27
REMARK H PARENT
ROOT
ATOM      1  C   UNL     1      -4.201   0.341  -0.594  1.00  0.00     0.243 C 
ATOM      2  C   UNL     1      -2.838   0.416  -1.313  1.00  0.00     0.058 C 
ATOM      3  C   UNL     1      -1.841   0.080  -0.207  1.00  0.00     0.010 C 
ATOM      4  C   UNL     1      -0.346   0.307  -0.439  1.00  0.00     0.001 C 
ATOM      5  C   UNL     1       0.174  -0.405  -1.689  1.00  0.00     0.009 C 
ATOM      6  C   UNL     1       1.632  -0.026  -1.933  1.00  0.00     0.036 C 
ATOM      7  C   UNL     1       2.491  -0.051  -0.692  1.00  0.00    -0.041 A 
ATOM      8  C   UNL     1       1.940  -0.098   0.610  1.00  0.00    -0.041 A 
ATOM      9  C   UNL     1       2.820  -0.116   1.709  1.00  0.00     0.008 A 
ATOM     10  C   UNL     1       4.203  -0.051   1.533  1.00  0.00     0.047 A 
ATOM     11  C   UNL     1       4.724   0.004   0.248  1.00  0.00     0.131 A 
ATOM     12  C   UNL     1       3.884   0.025  -0.861  1.00  0.00     0.051 A 
ATOM     13  C   UNL     1       0.431  -0.223   0.806  1.00  0.00     0.023 C 
ATOM     14  C   UNL     1      -0.116   0.399   2.120  1.00  0.00     0.010 C 
ATOM     15  C   UNL     1      -1.648   0.322   2.254  1.00  0.00     0.016 C 
ATOM     16  C   UNL     1      -2.344   0.877   1.015  1.00  0.00     0.033 C 
ATOM     17  C   UNL     1      -2.197   2.407   0.935  1.00  0.00     0.020 C 
ATOM     18  C   UNL     1      -3.824   0.572   0.876  1.00  0.00     0.179 C 
ATOM     19  O   UNL     1      -4.603   0.508   1.819  1.00  0.00    -0.295 OA
ENDROOT
BRANCH   1  20
ATOM     20  O   UNL     1      -4.744  -0.969  -0.741  1.00  0.00    -0.455 OA
BRANCH  20  21
ATOM     21  C   UNL     1      -6.104  -1.031  -0.727  1.00  0.00     0.303 C 
ATOM     22  O   UNL     1      -6.862  -0.073  -0.713  1.00  0.00    -0.253 OA
ATOM     23  C   UNL     1      -6.549  -2.461  -0.761  1.00  0.00     0.139 C 
ENDBRANCH  20  21
ENDBRANCH   1  20
BRANCH  11  24
ATOM     24  O   UNL     1       6.111   0.125   0.112  1.00  0.00    -0.427 OA
BRANCH  24  25
ATOM     25  C   UNL     1       6.739  -0.917  -0.562  1.00  0.00     0.308 C 
ATOM     26  O   UNL     1       6.215  -1.916  -1.035  1.00  0.00    -0.252 OA
ATOM     27  C   UNL     1       8.209  -0.625  -0.629  1.00  0.00     0.139 C 
ENDBRANCH  24  25
ENDBRANCH  11  24
TORSDOF 4
