REMARK SMILES CCCCC(=O)O[C@]1(C(=O)CO)CC[C@H]2[C@@H]3CCC4=CC(=O)CC[C@]4(C)[C@H]3[C@@H](O)C[C@@]21C
REMARK SMILES IDX 7 1 5 2 6 3 4 4 3 5 2 6 1 7 8 8 13 9 31 10 14 11 30 12 15 13
REMARK SMILES IDX 28 14 16 15 27 16 17 17 25 18 18 19 24 20 19 21 23 22 20 23
REMARK SMILES IDX 21 24 22 25 32 26 26 27 9 28 10 29 11 30 12 31 29 33
REMARK H PARENT 12 32 29 34
ROOT
ATOM      1  O   UNL     1       2.243  -0.397  -0.343  1.00  0.00    -0.450 OA
ENDROOT
BRANCH   1   2
ATOM      2  C   UNL     1       3.520  -0.565  -0.782  1.00  0.00     0.306 C 
ATOM      3  O   UNL     1       4.302  -1.393  -0.340  1.00  0.00    -0.252 OA
BRANCH   2   4
ATOM      4  C   UNL     1       3.797   0.397  -1.913  1.00  0.00     0.123 C 
BRANCH   4   5
ATOM      5  C   UNL     1       5.285   0.523  -2.243  1.00  0.00     0.011 C 
BRANCH   5   6
ATOM      6  C   UNL     1       6.130   1.198  -1.157  1.00  0.00    -0.003 C 
ATOM      7  C   UNL     1       5.760   2.653  -0.914  1.00  0.00     0.004 C 
ENDBRANCH   5   6
ENDBRANCH   4   5
ENDBRANCH   2   4
ENDBRANCH   1   2
BRANCH   1   8
ATOM      8  C   UNL     1       1.786  -1.211   0.774  1.00  0.00     0.178 C 
ATOM      9  C   UNL     1       1.523  -2.662   0.277  1.00  0.00     0.058 C 
ATOM     10  C   UNL     1       0.332  -0.726   1.139  1.00  0.00     0.020 C 
ATOM     11  C   UNL     1       0.047  -2.730  -0.170  1.00  0.00     0.009 C 
ATOM     12  C   UNL     1       0.112   0.806   1.176  1.00  0.00     0.043 C 
ATOM     13  C   UNL     1      -0.448  -1.293  -0.080  1.00  0.00     0.003 C 
ATOM     14  C   UNL     1      -1.376   1.226   1.131  1.00  0.00     0.119 C 
ATOM     15  C   UNL     1      -1.956  -1.012  -0.005  1.00  0.00    -0.000 C 
ATOM     16  C   UNL     1      -2.144   0.542  -0.029  1.00  0.00     0.031 C 
ATOM     17  C   UNL     1      -2.782  -1.724  -1.096  1.00  0.00     0.009 C 
ATOM     18  C   UNL     1      -3.651   0.932  -0.217  1.00  0.00    -0.005 C 
ATOM     19  C   UNL     1      -3.351  -0.789  -2.158  1.00  0.00     0.032 C 
ATOM     20  C   UNL     1      -3.822   2.474  -0.215  1.00  0.00     0.020 C 
ATOM     21  C   UNL     1      -4.085   0.408  -1.594  1.00  0.00    -0.060 C 
ATOM     22  C   UNL     1      -5.222   2.927  -0.621  1.00  0.00     0.081 C 
ATOM     23  C   UNL     1      -5.019   1.021  -2.343  1.00  0.00     0.047 C 
ATOM     24  C   UNL     1      -5.684   2.268  -1.898  1.00  0.00     0.155 C 
ATOM     25  O   UNL     1      -6.606   2.727  -2.570  1.00  0.00    -0.295 OA
ATOM     26  C   UNL     1      -0.104  -1.353   2.495  1.00  0.00     0.016 C 
ATOM     27  C   UNL     1      -4.575   0.324   0.866  1.00  0.00     0.016 C 
BRANCH   8  28
ATOM     28  C   UNL     1       2.759  -1.022   1.964  1.00  0.00     0.202 C 
ATOM     29  O   UNL     1       2.901   0.085   2.501  1.00  0.00    -0.293 OA
BRANCH  28  30
ATOM     30  C   UNL     1       3.542  -2.216   2.486  1.00  0.00     0.236 C 
BRANCH  30  31
ATOM     31  O   UNL     1       2.829  -2.877   3.516  1.00  0.00    -0.388 OA
ATOM     32  H   UNL     1       2.809  -2.268   4.278  1.00  0.00     0.211 HD
ENDBRANCH  30  31
ENDBRANCH  28  30
ENDBRANCH   8  28
BRANCH  14  33
ATOM     33  O   UNL     1      -2.006   0.966   2.376  1.00  0.00    -0.393 OA
ATOM     34  H   UNL     1      -1.486   1.408   3.070  1.00  0.00     0.210 HD
ENDBRANCH  14  33
ENDBRANCH   1   8
TORSDOF 9
