REMARK SMILES C[C@]12CCC(=O)C=C1CC[C@@H]1[C@@H]2[C@@H](O)C[C@@]2(C)[C@H]1CC[C@]2(O)C(=O)COP(=O)(O)O
REMARK SMILES IDX 25 1 23 2 24 3 21 4 16 5 15 6 18 7 13 8 11 9 19 10 20 11
REMARK SMILES IDX 12 12 10 13 2 14 9 15 3 16 8 17 4 18 7 19 5 20 6 21 17 22
REMARK SMILES IDX 1 23 22 24 14 26 26 28 27 29 28 30 29 31 30 33
REMARK H PARENT 22 25 14 27 29 32 30 34
ROOT
ATOM      1  C   UNL     1       4.603  -0.694   1.893  1.00  0.00     0.252 C 
ENDROOT
BRANCH   1   2
ATOM      2  C   UNL     1       3.815   0.398   1.177  1.00  0.00     0.191 C 
ATOM      3  O   UNL     1       4.365   1.142   0.361  1.00  0.00    -0.294 OA
BRANCH   2   4
ATOM      4  C   UNL     1       2.321   0.543   1.566  1.00  0.00     0.131 C 
ATOM      5  C   UNL     1       1.292   0.462   0.384  1.00  0.00     0.009 C 
ATOM      6  C   UNL     1       0.926  -0.952  -0.119  1.00  0.00     0.042 C 
ATOM      7  C   UNL     1       0.047   1.036   1.101  1.00  0.00     0.002 C 
ATOM      8  C   UNL     1      -0.327  -0.968  -1.025  1.00  0.00     0.119 C 
ATOM      9  C   UNL     1      -1.194   1.158   0.202  1.00  0.00    -0.000 C 
ATOM     10  C   UNL     1       0.581   2.291   1.796  1.00  0.00     0.008 C 
ATOM     11  C   UNL     1       2.048   1.956   2.146  1.00  0.00     0.044 C 
ATOM     12  C   UNL     1      -1.550  -0.251  -0.376  1.00  0.00     0.031 C 
ATOM     13  C   UNL     1      -2.380   1.718   1.008  1.00  0.00     0.009 C 
ATOM     14  C   UNL     1      -2.868  -0.235  -1.249  1.00  0.00    -0.005 C 
ATOM     15  C   UNL     1      -3.669   1.753   0.200  1.00  0.00     0.032 C 
ATOM     16  C   UNL     1      -3.238  -1.706  -1.608  1.00  0.00     0.020 C 
ATOM     17  C   UNL     1      -3.986   0.412  -0.415  1.00  0.00    -0.060 C 
ATOM     18  C   UNL     1      -4.688  -1.883  -2.031  1.00  0.00     0.081 C 
ATOM     19  C   UNL     1      -5.199  -0.139  -0.236  1.00  0.00     0.047 C 
ATOM     20  C   UNL     1      -5.601  -1.374  -0.949  1.00  0.00     0.155 C 
ATOM     21  O   UNL     1      -6.690  -1.889  -0.706  1.00  0.00    -0.295 OA
ATOM     22  C   UNL     1       1.750   1.347  -0.810  1.00  0.00     0.015 C 
ATOM     23  C   UNL     1      -2.741   0.576  -2.561  1.00  0.00     0.016 C 
BRANCH   4  24
ATOM     24  O   UNL     1       1.980  -0.367   2.619  1.00  0.00    -0.381 OA
ATOM     25  H   UNL     1       1.897  -1.267   2.263  1.00  0.00     0.212 HD
ENDBRANCH   4  24
BRANCH   8  26
ATOM     26  O   UNL     1      -0.016  -0.408  -2.289  1.00  0.00    -0.393 OA
ATOM     27  H   UNL     1       0.750  -0.888  -2.650  1.00  0.00     0.210 HD
ENDBRANCH   8  26
ENDBRANCH   2   4
ENDBRANCH   1   2
BRANCH   1  28
ATOM     28  O   UNL     1       5.899  -0.871   1.355  1.00  0.00    -0.279 OA
BRANCH  28  29
ATOM     29  P   UNL     1       6.042  -1.787   0.055  1.00  0.00     0.470 P 
ATOM     30  O   UNL     1       7.391  -1.845  -0.571  1.00  0.00    -0.228 OA
BRANCH  29  31
ATOM     31  O   UNL     1       5.540  -3.231   0.513  1.00  0.00    -0.303 OA
ATOM     32  H   UNL     1       6.313  -3.790   0.723  1.00  0.00     0.223 HD
ENDBRANCH  29  31
BRANCH  29  33
ATOM     33  O   UNL     1       4.900  -1.331  -0.960  1.00  0.00    -0.303 OA
ATOM     34  H   UNL     1       5.283  -0.710  -1.619  1.00  0.00     0.223 HD
ENDBRANCH  29  33
ENDBRANCH  28  29
ENDBRANCH   1  28
TORSDOF 8
