REMARK SMILES CCCCCN(C)CCC(O)(P(=O)(O)O)P(=O)(O)O
REMARK SMILES IDX 6 1 7 2 5 3 4 4 3 5 2 6 1 7 8 8 9 9 10 10 11 11 12 13 13 14
REMARK SMILES IDX 14 15 15 17 16 19 17 20 18 21 19 23
REMARK H PARENT 11 12 14 16 15 18 18 22 19 24
ROOT
ATOM      1  N   UNL     1       0.485  -0.696   0.465  1.00  0.00    -0.306 NA
ATOM      2  C   UNL     1       0.811  -0.385   1.861  1.00  0.00     0.105 C 
ENDROOT
BRANCH   1   3
ATOM      3  C   UNL     1       1.627  -0.409  -0.430  1.00  0.00     0.084 C 
BRANCH   3   4
ATOM      4  C   UNL     1       2.831  -1.331  -0.189  1.00  0.00     0.015 C 
BRANCH   4   5
ATOM      5  C   UNL     1       3.913  -1.203  -1.270  1.00  0.00     0.001 C 
BRANCH   5   6
ATOM      6  C   UNL     1       4.526   0.190  -1.432  1.00  0.00    -0.003 C 
ATOM      7  C   UNL     1       5.195   0.711  -0.171  1.00  0.00     0.004 C 
ENDBRANCH   5   6
ENDBRANCH   4   5
ENDBRANCH   3   4
ENDBRANCH   1   3
BRANCH   1   8
ATOM      8  C   UNL     1      -0.701   0.059   0.008  1.00  0.00     0.088 C 
BRANCH   8   9
ATOM      9  C   UNL     1      -1.992  -0.503   0.611  1.00  0.00     0.077 C 
BRANCH   9  10
ATOM     10  C   UNL     1      -3.295   0.023  -0.024  1.00  0.00     0.268 C 
BRANCH  10  11
ATOM     11  O   UNL     1      -4.356  -0.573   0.817  1.00  0.00    -0.367 OA
ATOM     12  H   UNL     1      -4.474   0.030   1.578  1.00  0.00     0.213 HD
ENDBRANCH  10  11
BRANCH  10  13
ATOM     13  P   UNL     1      -3.585  -0.708  -1.673  1.00  0.00     0.369 P 
ATOM     14  O   UNL     1      -2.523  -0.594  -2.714  1.00  0.00    -0.256 OA
BRANCH  13  15
ATOM     15  O   UNL     1      -5.006  -0.175  -2.186  1.00  0.00    -0.322 OA
ATOM     16  H   UNL     1      -5.207  -0.514  -3.080  1.00  0.00     0.221 HD
ENDBRANCH  13  15
BRANCH  13  17
ATOM     17  O   UNL     1      -4.008  -2.228  -1.337  1.00  0.00    -0.322 OA
ATOM     18  H   UNL     1      -4.405  -2.281  -0.440  1.00  0.00     0.221 HD
ENDBRANCH  13  17
ENDBRANCH  10  13
BRANCH  10  19
ATOM     19  P   UNL     1      -3.495   1.824   0.083  1.00  0.00     0.369 P 
ATOM     20  O   UNL     1      -4.819   2.439  -0.219  1.00  0.00    -0.256 OA
BRANCH  19  21
ATOM     21  O   UNL     1      -3.099   2.174   1.605  1.00  0.00    -0.322 OA
ATOM     22  H   UNL     1      -3.353   3.085   1.854  1.00  0.00     0.221 HD
ENDBRANCH  19  21
BRANCH  19  23
ATOM     23  O   UNL     1      -2.302   2.544  -0.700  1.00  0.00    -0.322 OA
ATOM     24  H   UNL     1      -2.456   3.497  -0.854  1.00  0.00     0.221 HD
ENDBRANCH  19  23
ENDBRANCH  10  19
ENDBRANCH   9  10
ENDBRANCH   8   9
ENDBRANCH   1   8
TORSDOF 14
