REMARK SMILES CC(C)[C@@H](C)[C@@]1(C)CC[C@]2(C)[C@H]3CC[C@@H]4[C@@]5(COC[C@@]4(C)[C@@H](OC[C@](C)(N)C(C)(C)C)[C@H](n4ncnc4-c4ccncc4)C5)C3=CC[C@@]2(C)[C@@H]1C(=O)O
REMARK SMILES IDX 23 1 22 2 6 3 8 4 50 5 9 6 48 7 10 8 47 9 12 10 46 11 13 12
REMARK SMILES IDX 45 13 14 14 16 15 15 16 17 17 44 18 20 19 18 20 32 21 19 22
REMARK SMILES IDX 7 23 49 24 11 25 21 26 4 27 5 28 2 29 1 30 3 31 51 32 52 33
REMARK SMILES IDX 53 34 33 36 37 37 34 38 36 39 35 40 38 41 39 42 43 43 40 44
REMARK SMILES IDX 42 45 41 46 24 47 25 48 26 49 28 50 29 51 30 52 31 53 27 54
REMARK H PARENT 53 35 27 55 27 56
ROOT
ATOM      1  O   UNL     1      -4.577  -0.183   0.611  1.00  0.00    -0.373 OA
ENDROOT
BRANCH   1   2
ATOM      2  C   UNL     1      -3.186  -0.321   0.257  1.00  0.00     0.151 C 
ATOM      3  C   UNL     1       6.281  -0.742  -0.547  1.00  0.00    -0.016 C 
ATOM      4  C   UNL     1       5.746  -1.536   0.690  1.00  0.00     0.008 C 
ATOM      5  C   UNL     1       5.413   0.586  -0.703  1.00  0.00     0.112 C 
ATOM      6  C   UNL     1       4.228  -1.670   0.819  1.00  0.00     0.008 C 
ATOM      7  C   UNL     1       3.842   0.439  -0.541  1.00  0.00    -0.009 C 
ATOM      8  C   UNL     1       3.490  -0.315   0.808  1.00  0.00    -0.019 C 
ATOM      9  C   UNL     1       3.160   1.840  -0.464  1.00  0.00     0.035 C 
ATOM     10  C   UNL     1       1.928  -0.542   0.884  1.00  0.00     0.022 C 
ATOM     11  C   UNL     1       1.719   1.786  -0.020  1.00  0.00    -0.026 C 
ATOM     12  C   UNL     1       1.454  -1.062   2.253  1.00  0.00     0.009 C 
ATOM     13  C   UNL     1       1.121   0.709   0.538  1.00  0.00    -0.062 C 
ATOM     14  C   UNL     1      -0.006  -1.501   2.234  1.00  0.00     0.006 C 
ATOM     15  C   UNL     1      -0.396   0.665   0.844  1.00  0.00     0.021 C 
ATOM     16  C   UNL     1      -0.871  -0.783   1.169  1.00  0.00     0.013 C 
ATOM     17  C   UNL     1      -0.737   1.612   2.032  1.00  0.00     0.172 C 
ATOM     18  C   UNL     1      -1.169   1.108  -0.434  1.00  0.00     0.044 C 
ATOM     19  C   UNL     1      -2.384  -0.733   1.537  1.00  0.00     0.023 C 
ATOM     20  O   UNL     1      -1.424   0.943   3.090  1.00  0.00    -0.380 OA
ATOM     21  C   UNL     1      -2.697   1.016  -0.337  1.00  0.00     0.140 C 
ATOM     22  C   UNL     1      -2.626   0.293   2.681  1.00  0.00     0.170 C 
ATOM     23  C   UNL     1       6.210  -1.670  -1.786  1.00  0.00     0.012 C 
ATOM     24  C   UNL     1       3.217  -0.283  -1.782  1.00  0.00     0.013 C 
ATOM     25  C   UNL     1       3.947   0.483   2.074  1.00  0.00     0.012 C 
ATOM     26  C   UNL     1      -2.900  -2.123   1.989  1.00  0.00     0.017 C 
BRANCH   3  27
ATOM     27  C   UNL     1       7.833  -0.395  -0.250  1.00  0.00    -0.005 C 
ATOM     28  C   UNL     1       8.535   0.451  -1.330  1.00  0.00     0.008 C 
BRANCH  27  29
ATOM     29  C   UNL     1       8.699  -1.655   0.166  1.00  0.00    -0.014 C 
ATOM     30  C   UNL     1       9.899  -1.992  -0.737  1.00  0.00     0.007 C 
ATOM     31  C   UNL     1       9.198  -1.508   1.612  1.00  0.00     0.007 C 
ENDBRANCH  27  29
ENDBRANCH   3  27
BRANCH   5  32
ATOM     32  C   UNL     1       5.728   1.442  -1.930  1.00  0.00     0.307 C 
ATOM     33  O   UNL     1       5.813   1.094  -3.095  1.00  0.00    -0.252 OA
BRANCH  32  34
ATOM     34  O   UNL     1       5.906   2.741  -1.611  1.00  0.00    -0.481 OA
ATOM     35  H   UNL     1       6.124   3.175  -2.464  1.00  0.00     0.296 HD
ENDBRANCH  32  34
ENDBRANCH   5  32
BRANCH  21  36
ATOM     36  N   UNL     1      -3.291   1.261  -1.654  1.00  0.00    -0.240 N 
ATOM     37  C   UNL     1      -4.059   2.322  -2.082  1.00  0.00     0.158 A 
ATOM     38  N   UNL     1      -3.156   0.340  -2.636  1.00  0.00    -0.159 NA
ATOM     39  N   UNL     1      -4.499   2.048  -3.297  1.00  0.00    -0.215 NA
ATOM     40  C   UNL     1      -3.917   0.858  -3.599  1.00  0.00     0.246 A 
BRANCH  37  41
ATOM     41  C   UNL     1      -4.376   3.534  -1.333  1.00  0.00     0.022 A 
ATOM     42  C   UNL     1      -3.382   4.331  -0.762  1.00  0.00     0.032 A 
ATOM     43  C   UNL     1      -5.708   3.932  -1.214  1.00  0.00     0.032 A 
ATOM     44  C   UNL     1      -3.765   5.455  -0.052  1.00  0.00     0.111 A 
ATOM     45  C   UNL     1      -5.992   5.082  -0.497  1.00  0.00     0.111 A 
ATOM     46  N   UNL     1      -5.049   5.847   0.092  1.00  0.00    -0.265 NA
ENDBRANCH  37  41
ENDBRANCH  21  36
ENDBRANCH   1   2
BRANCH   1  47
ATOM     47  C   UNL     1      -5.446  -1.001  -0.197  1.00  0.00     0.183 C 
BRANCH  47  48
ATOM     48  C   UNL     1      -6.934  -0.801   0.240  1.00  0.00     0.041 C 
ATOM     49  C   UNL     1      -7.306   0.683  -0.000  1.00  0.00     0.031 C 
BRANCH  48  50
ATOM     50  C   UNL     1      -7.919  -1.808  -0.503  1.00  0.00    -0.018 C 
ATOM     51  C   UNL     1      -7.608  -3.288  -0.176  1.00  0.00     0.013 C 
ATOM     52  C   UNL     1      -9.396  -1.554  -0.110  1.00  0.00     0.013 C 
ATOM     53  C   UNL     1      -7.823  -1.655  -2.045  1.00  0.00     0.013 C 
ENDBRANCH  48  50
BRANCH  48  54
ATOM     54  N   UNL     1      -7.017  -0.986   1.711  1.00  0.00    -0.323 NA
ATOM     55  H   UNL     1      -6.709  -1.919   1.962  1.00  0.00     0.119 HD
ATOM     56  H   UNL     1      -6.308  -0.378   2.128  1.00  0.00     0.119 HD
ENDBRANCH  48  54
ENDBRANCH  47  48
ENDBRANCH   1  47
TORSDOF 11
