REMARK SMILES CC/C=C\C/C=C\C/C=C\C/C=C\C/C=C\CCCC(=O)OCC
REMARK SMILES IDX 13 1 12 2 14 3 15 4 16 5 17 6 18 7 19 8 20 9 21 10 22 11
REMARK SMILES IDX 23 12 24 13 11 14 10 15 9 16 8 17 7 18 6 19 5 20 4 21 3 22
REMARK SMILES IDX 2 23 1 24
REMARK H PARENT
ROOT
ATOM      1  C   UNL     1      -0.723   2.665  -2.209  1.00  0.00    -0.027 C 
ATOM      2  C   UNL     1       0.312   2.032  -1.631  1.00  0.00    -0.027 C 
ENDROOT
BRANCH   1   3
ATOM      3  C   UNL     1      -2.179   2.318  -2.095  1.00  0.00     0.054 C 
BRANCH   3   4
ATOM      4  C   UNL     1      -2.857   3.172  -1.064  1.00  0.00    -0.027 C 
ATOM      5  C   UNL     1      -3.587   2.775  -0.007  1.00  0.00    -0.031 C 
BRANCH   5   6
ATOM      6  C   UNL     1      -3.924   1.370   0.406  1.00  0.00     0.027 C 
BRANCH   6   7
ATOM      7  C   UNL     1      -5.440   1.173   0.473  1.00  0.00     0.016 C 
BRANCH   7   8
ATOM      8  C   UNL     1      -5.799  -0.270   0.824  1.00  0.00     0.123 C 
BRANCH   8   9
ATOM      9  C   UNL     1      -7.293  -0.463   0.931  1.00  0.00     0.305 C 
ATOM     10  O   UNL     1      -8.109   0.429   1.111  1.00  0.00    -0.252 OA
BRANCH   9  11
ATOM     11  O   UNL     1      -7.588  -1.791   0.828  1.00  0.00    -0.466 OA
BRANCH  11  12
ATOM     12  C   UNL     1      -8.976  -2.134   0.955  1.00  0.00     0.229 C 
ATOM     13  C   UNL     1      -9.689  -1.968  -0.375  1.00  0.00     0.049 C 
ENDBRANCH  11  12
ENDBRANCH   9  11
ENDBRANCH   8   9
ENDBRANCH   7   8
ENDBRANCH   6   7
ENDBRANCH   5   6
ENDBRANCH   3   4
ENDBRANCH   1   3
BRANCH   2  14
ATOM     14  C   UNL     1       0.258   0.862  -0.693  1.00  0.00     0.054 C 
BRANCH  14  15
ATOM     15  C   UNL     1       0.912  -0.345  -1.301  1.00  0.00    -0.027 C 
ATOM     16  C   UNL     1       2.138  -0.832  -1.046  1.00  0.00    -0.027 C 
BRANCH  16  17
ATOM     17  C   UNL     1       3.170  -0.276  -0.106  1.00  0.00     0.054 C 
BRANCH  17  18
ATOM     18  C   UNL     1       4.361   0.233  -0.867  1.00  0.00    -0.027 C 
ATOM     19  C   UNL     1       5.643  -0.156  -0.757  1.00  0.00    -0.027 C 
BRANCH  19  20
ATOM     20  C   UNL     1       6.217  -1.216   0.138  1.00  0.00     0.054 C 
BRANCH  20  21
ATOM     21  C   UNL     1       7.000  -0.601   1.260  1.00  0.00    -0.027 C 
ATOM     22  C   UNL     1       8.334  -0.583   1.424  1.00  0.00    -0.031 C 
BRANCH  22  23
ATOM     23  C   UNL     1       9.377  -1.136   0.497  1.00  0.00     0.023 C 
ATOM     24  C   UNL     1      10.109  -2.311   1.127  1.00  0.00     0.008 C 
ENDBRANCH  22  23
ENDBRANCH  20  21
ENDBRANCH  19  20
ENDBRANCH  17  18
ENDBRANCH  16  17
ENDBRANCH  14  15
ENDBRANCH   2  14
TORSDOF 15
