REMARK SMILES CC1Cc2ccccc2N1NC(=O)c1ccc(Cl)c(S(N)(=O)=O)c1
REMARK SMILES IDX 14 1 24 2 19 3 17 4 18 5 16 6 15 7 12 8 11 9 13 10 10 12
REMARK SMILES IDX 2 13 3 14 4 15 9 16 5 17 8 18 6 19 7 20 1 21 20 22 22 23
REMARK SMILES IDX 23 24 21 25
REMARK H PARENT 11 11 21 26 21 27
ROOT
ATOM      1  C   UNL     1       1.876  -0.381   0.078  1.00  0.00     0.043 A 
ATOM      2  C   UNL     1       2.964  -0.130   0.925  1.00  0.00     0.037 A 
ATOM      3  C   UNL     1       4.245   0.087   0.391  1.00  0.00     0.101 A 
ATOM      4  C   UNL     1       4.443   0.043  -0.991  1.00  0.00     0.061 A 
ATOM      5  Cl  UNL     1       5.963   0.326  -1.759  1.00  0.00    -0.083 Cl
ATOM      6  C   UNL     1       3.356  -0.223  -1.833  1.00  0.00     0.023 A 
ATOM      7  C   UNL     1       2.079  -0.439  -1.305  1.00  0.00     0.015 A 
ENDROOT
BRANCH   1   8
ATOM      8  C   UNL     1       0.539  -0.618   0.691  1.00  0.00     0.269 C 
ATOM      9  N   UNL     1      -0.548  -0.267  -0.092  1.00  0.00    -0.263 N 
ATOM     10  O   UNL     1       0.478  -1.095   1.820  1.00  0.00    -0.267 OA
ATOM     11  H   UNL     1      -0.454   0.278  -0.940  1.00  0.00     0.191 HD
BRANCH   9  12
ATOM     12  N   UNL     1      -1.816  -0.276   0.500  1.00  0.00    -0.282 N 
ATOM     13  C   UNL     1      -2.517  -1.580   0.660  1.00  0.00     0.107 C 
ATOM     14  C   UNL     1      -4.030  -1.252   0.721  1.00  0.00     0.064 C 
ATOM     15  C   UNL     1      -4.074   0.057   0.003  1.00  0.00    -0.021 A 
ATOM     16  C   UNL     1      -2.781   0.584  -0.084  1.00  0.00     0.061 A 
ATOM     17  C   UNL     1      -5.178   0.739  -0.482  1.00  0.00     0.006 A 
ATOM     18  C   UNL     1      -2.579   1.834  -0.649  1.00  0.00     0.028 A 
ATOM     19  C   UNL     1      -4.971   1.985  -1.074  1.00  0.00     0.000 A 
ATOM     20  C   UNL     1      -3.681   2.531  -1.154  1.00  0.00     0.002 A 
ATOM     21  C   UNL     1      -2.220  -2.555  -0.487  1.00  0.00     0.033 C 
ENDBRANCH   9  12
ENDBRANCH   1   8
BRANCH   3  22
ATOM     22  S   UNL     1       5.582   0.373   1.515  1.00  0.00     0.239 S 
ATOM     23  O   UNL     1       6.624  -0.585   1.233  1.00  0.00    -0.207 OA
ATOM     24  O   UNL     1       5.033   0.538   2.841  1.00  0.00    -0.207 OA
BRANCH  22  25
ATOM     25  N   UNL     1       6.171   1.883   1.059  1.00  0.00    -0.225 NA
ATOM     26  H   UNL     1       7.122   1.769   0.700  1.00  0.00     0.137 HD
ATOM     27  H   UNL     1       5.577   2.386   0.404  1.00  0.00     0.137 HD
ENDBRANCH  22  25
ENDBRANCH   3  22
TORSDOF 4
