REMARK SMILES C1=Cc2cccc(OCC3CNCCO3)c2C1
REMARK SMILES IDX 9 1 8 2 7 3 6 4 16 5 5 6 3 7 17 8 4 9 2 10 1 11 10 12 11 13
REMARK SMILES IDX 15 14 12 15 14 16 13 17
REMARK H PARENT 12 18
ROOT
ATOM      1  C   UNL     1       0.988   1.155   0.669  1.00  0.00     0.262 C 
ENDROOT
BRANCH   1   2
ATOM      2  O   UNL     1      -0.074   0.298   0.243  1.00  0.00    -0.491 OA
BRANCH   2   3
ATOM      3  C   UNL     1      -1.349   0.738   0.443  1.00  0.00     0.123 A 
ATOM      4  C   UNL     1      -1.730   1.920   1.085  1.00  0.00     0.047 A 
ATOM      5  C   UNL     1      -2.358  -0.080  -0.041  1.00  0.00     0.005 A 
ATOM      6  C   UNL     1      -3.090   2.260   1.225  1.00  0.00     0.004 A 
ATOM      7  C   UNL     1      -3.711   0.258   0.097  1.00  0.00    -0.019 A 
ATOM      8  C   UNL     1      -2.244  -1.392  -0.756  1.00  0.00     0.067 C 
ATOM      9  C   UNL     1      -4.094   1.426   0.727  1.00  0.00     0.008 A 
ATOM     10  C   UNL     1      -4.529  -0.782  -0.504  1.00  0.00     0.004 C 
ATOM     11  C   UNL     1      -3.701  -1.720  -0.990  1.00  0.00    -0.021 C 
ENDBRANCH   2   3
ENDBRANCH   1   2
BRANCH   1  12
ATOM     12  C   UNL     1       2.344   0.523   0.314  1.00  0.00     0.169 C 
ATOM     13  C   UNL     1       2.424   0.119  -1.175  1.00  0.00     0.116 C 
ATOM     14  O   UNL     1       2.588  -0.585   1.206  1.00  0.00    -0.372 OA
ATOM     15  N   UNL     1       3.742  -0.428  -1.554  1.00  0.00    -0.312 NA
ATOM     16  C   UNL     1       3.340  -1.645   0.602  1.00  0.00     0.176 C 
ATOM     17  C   UNL     1       4.365  -1.129  -0.417  1.00  0.00     0.109 C 
ATOM     18  H   UNL     1       4.360   0.327  -1.851  1.00  0.00     0.122 HD
ENDBRANCH   1  12
TORSDOF 3
