REMARK SMILES CCN1CCN(c2ccc(Nc3cc(N(C)C(=O)Nc4c(Cl)c(OC)cc(OC)c4Cl)ncn3)cc2)CC1
REMARK SMILES IDX 12 1 13 2 14 3 32 4 33 5 34 6 11 7 10 9 7 10 8 11 36 12 9 13
REMARK SMILES IDX 35 14 6 15 3 16 4 17 38 18 5 19 37 20 2 21 1 22 15 23 16 24
REMARK SMILES IDX 17 25 18 26 19 27 20 29 30 30 21 31 27 32 23 33 26 34 31 35
REMARK SMILES IDX 22 36 28 37 29 38 24 39 25 40
REMARK H PARENT 11 8 19 28
ROOT
ATOM      1  C   UNL     1       0.035  -0.322   2.311  1.00  0.00     0.135 A 
ATOM      2  C   UNL     1       0.459   0.025   1.041  1.00  0.00     0.094 A 
ATOM      3  C   UNL     1       1.819   0.186   0.824  1.00  0.00     0.141 A 
ATOM      4  N   UNL     1       2.689   0.020   1.838  1.00  0.00    -0.219 NA
ATOM      5  C   UNL     1       2.187  -0.302   3.037  1.00  0.00     0.226 A 
ATOM      6  N   UNL     1       0.897  -0.474   3.326  1.00  0.00    -0.219 NA
ENDROOT
BRANCH   1   7
ATOM      7  N   UNL     1      -1.312  -0.463   2.649  1.00  0.00    -0.340 N 
ATOM      8  H   UNL     1      -1.374  -0.655   3.646  1.00  0.00     0.168 HD
BRANCH   7   9
ATOM      9  C   UNL     1      -2.437  -0.914   1.941  1.00  0.00     0.040 A 
ATOM     10  C   UNL     1      -4.830  -1.703   0.577  1.00  0.00     0.037 A 
ATOM     11  C   UNL     1      -4.873  -1.023   1.799  1.00  0.00     0.028 A 
ATOM     12  C   UNL     1      -3.554  -1.986   0.066  1.00  0.00     0.028 A 
ATOM     13  C   UNL     1      -3.703  -0.631   2.463  1.00  0.00     0.028 A 
ATOM     14  C   UNL     1      -2.379  -1.596   0.728  1.00  0.00     0.028 A 
BRANCH  10  15
ATOM     15  N   UNL     1      -5.970  -2.107  -0.128  1.00  0.00    -0.369 N 
ATOM     16  N   UNL     1      -8.472  -0.969  -1.347  1.00  0.00    -0.300 NA
ATOM     17  C   UNL     1      -8.159  -0.947   0.094  1.00  0.00     0.106 C 
ATOM     18  C   UNL     1      -7.432  -1.659  -2.137  1.00  0.00     0.106 C 
ATOM     19  C   UNL     1      -7.293  -2.149   0.531  1.00  0.00     0.132 C 
ATOM     20  C   UNL     1      -6.004  -1.635  -1.537  1.00  0.00     0.132 C 
BRANCH  16  21
ATOM     21  C   UNL     1      -8.891   0.329  -1.877  1.00  0.00     0.081 C 
ATOM     22  C   UNL     1      -7.805   1.393  -2.017  1.00  0.00     0.021 C 
ENDBRANCH  16  21
ENDBRANCH  10  15
ENDBRANCH   7   9
ENDBRANCH   1   7
BRANCH   3  23
ATOM     23  N   UNL     1       2.332   0.575  -0.461  1.00  0.00    -0.281 N 
ATOM     24  C   UNL     1       1.386   0.870  -1.531  1.00  0.00     0.157 C 
BRANCH  23  25
ATOM     25  C   UNL     1       3.687   0.801  -0.758  1.00  0.00     0.327 C 
ATOM     26  O   UNL     1       4.036   1.371  -1.794  1.00  0.00    -0.248 OA
ATOM     27  N   UNL     1       4.594   0.358   0.180  1.00  0.00    -0.304 N 
ATOM     28  H   UNL     1       4.217   0.427   1.124  1.00  0.00     0.171 HD
BRANCH  27  29
ATOM     29  C   UNL     1       6.000   0.533   0.060  1.00  0.00     0.088 A 
ATOM     30  C   UNL     1       6.692   1.105   1.147  1.00  0.00     0.108 A 
ATOM     31  C   UNL     1       6.734   0.125  -1.072  1.00  0.00     0.108 A 
ATOM     32  C   UNL     1       8.075   1.355   1.079  1.00  0.00     0.143 A 
ATOM     33  C   UNL     1       8.116   0.387  -1.147  1.00  0.00     0.143 A 
ATOM     34  C   UNL     1       8.779   0.991  -0.072  1.00  0.00     0.096 A 
ATOM     35  Cl  UNL     1       5.817   1.547   2.589  1.00  0.00    -0.078 Cl
ATOM     36  Cl  UNL     1       6.012  -0.845  -2.324  1.00  0.00    -0.078 Cl
BRANCH  32  37
ATOM     37  O   UNL     1       8.664   1.921   2.182  1.00  0.00    -0.495 OA
ATOM     38  C   UNL     1       9.924   2.557   1.995  1.00  0.00     0.278 C 
ENDBRANCH  32  37
BRANCH  33  39
ATOM     39  O   UNL     1       8.799  -0.049  -2.257  1.00  0.00    -0.495 OA
ATOM     40  C   UNL     1       9.778   0.861  -2.753  1.00  0.00     0.278 C 
ENDBRANCH  33  39
ENDBRANCH  27  29
ENDBRANCH  23  25
ENDBRANCH   3  23
TORSDOF 9
