REMARK SMILES O=C(O[C@H]1[C@H](OC(=O)c2cccnc2)[C@@H](OC(=O)c2cccnc2)[C@H](OC(=O)c2cccnc2)[C@@H](OC(=O)c2cccnc2)[C@H]1OC(=O)c1cccnc1)c1cccnc1
REMARK SMILES IDX 25 1 15 2 5 3 4 4 45 5 35 6 26 7 27 8 28 9 29 10 34 11 30 12
REMARK SMILES IDX 33 13 31 14 32 15 16 16 17 17 18 18 19 19 24 20 20 21 23 22
REMARK SMILES IDX 21 23 22 24 36 25 37 26 38 27 39 28 44 29 40 30 43 31 41 32
REMARK SMILES IDX 42 33 6 34 7 35 8 36 9 37 14 38 10 39 13 40 11 41 12 42
REMARK SMILES IDX 46 43 47 44 48 45 49 46 54 47 50 48 53 49 51 50 52 51 3 52
REMARK SMILES IDX 2 53 1 54 55 55 60 56 56 57 59 58 57 59 58 60
REMARK H PARENT
ROOT
ATOM      1  C   UNL     1      -1.220   0.054   0.504  1.00  0.00     0.266 C 
ATOM      2  C   UNL     1      -0.126   1.134   0.571  1.00  0.00     0.266 C 
ATOM      3  C   UNL     1       1.259   0.602   0.166  1.00  0.00     0.266 C 
ATOM      4  C   UNL     1       1.618  -0.667   0.959  1.00  0.00     0.266 C 
ATOM      5  C   UNL     1       0.537  -1.744   0.805  1.00  0.00     0.266 C 
ATOM      6  C   UNL     1      -0.815  -1.204   1.292  1.00  0.00     0.266 C 
ENDROOT
BRANCH   1   7
ATOM      7  O   UNL     1      -2.410   0.636   1.103  1.00  0.00    -0.450 OA
BRANCH   7   8
ATOM      8  C   UNL     1      -3.599   0.302   0.540  1.00  0.00     0.340 C 
ATOM      9  O   UNL     1      -3.756  -0.459  -0.401  1.00  0.00    -0.246 OA
BRANCH   8  10
ATOM     10  C   UNL     1      -4.711   0.986   1.228  1.00  0.00     0.078 A 
ATOM     11  C   UNL     1      -5.986   0.879   0.687  1.00  0.00     0.126 A 
ATOM     12  C   UNL     1      -4.559   1.731   2.400  1.00  0.00     0.019 A 
ATOM     13  N   UNL     1      -7.087   1.462   1.225  1.00  0.00    -0.264 NA
ATOM     14  C   UNL     1      -5.675   2.337   2.977  1.00  0.00     0.021 A 
ATOM     15  C   UNL     1      -6.904   2.179   2.358  1.00  0.00     0.111 A 
ENDBRANCH   8  10
ENDBRANCH   7   8
ENDBRANCH   1   7
BRANCH   2  16
ATOM     16  O   UNL     1      -0.521   2.182  -0.353  1.00  0.00    -0.450 OA
BRANCH  16  17
ATOM     17  C   UNL     1      -0.371   3.461   0.065  1.00  0.00     0.340 C 
ATOM     18  O   UNL     1       0.058   3.814   1.151  1.00  0.00    -0.246 OA
BRANCH  17  19
ATOM     19  C   UNL     1      -0.812   4.404  -0.983  1.00  0.00     0.078 A 
ATOM     20  C   UNL     1      -0.902   5.752  -0.662  1.00  0.00     0.126 A 
ATOM     21  C   UNL     1      -1.139   4.017  -2.285  1.00  0.00     0.019 A 
ATOM     22  N   UNL     1      -1.303   6.711  -1.535  1.00  0.00    -0.264 NA
ATOM     23  C   UNL     1      -1.546   4.984  -3.203  1.00  0.00     0.021 A 
ATOM     24  C   UNL     1      -1.616   6.302  -2.784  1.00  0.00     0.111 A 
ENDBRANCH  17  19
ENDBRANCH  16  17
ENDBRANCH   2  16
BRANCH   6  25
ATOM     25  O   UNL     1      -1.803  -2.240   1.092  1.00  0.00    -0.450 OA
BRANCH  25  26
ATOM     26  C   UNL     1      -2.694  -2.450   2.089  1.00  0.00     0.340 C 
ATOM     27  O   UNL     1      -2.734  -1.839   3.148  1.00  0.00    -0.246 OA
BRANCH  26  28
ATOM     28  C   UNL     1      -3.631  -3.535   1.735  1.00  0.00     0.078 A 
ATOM     29  C   UNL     1      -3.719  -4.063   0.452  1.00  0.00     0.126 A 
ATOM     30  C   UNL     1      -4.482  -4.056   2.715  1.00  0.00     0.019 A 
ATOM     31  N   UNL     1      -4.576  -5.057   0.102  1.00  0.00    -0.264 NA
ATOM     32  C   UNL     1      -5.373  -5.075   2.383  1.00  0.00     0.021 A 
ATOM     33  C   UNL     1      -5.383  -5.538   1.076  1.00  0.00     0.111 A 
ENDBRANCH  26  28
ENDBRANCH  25  26
ENDBRANCH   6  25
BRANCH   3  34
ATOM     34  O   UNL     1       2.261   1.598   0.489  1.00  0.00    -0.450 OA
BRANCH  34  35
ATOM     35  C   UNL     1       2.675   2.415  -0.510  1.00  0.00     0.340 C 
ATOM     36  O   UNL     1       2.262   2.404  -1.658  1.00  0.00    -0.246 OA
BRANCH  35  37
ATOM     37  C   UNL     1       3.714   3.343  -0.019  1.00  0.00     0.078 A 
ATOM     38  C   UNL     1       4.236   4.279  -0.904  1.00  0.00     0.126 A 
ATOM     39  C   UNL     1       4.207   3.332   1.288  1.00  0.00     0.019 A 
ATOM     40  N   UNL     1       5.197   5.178  -0.573  1.00  0.00    -0.264 NA
ATOM     41  C   UNL     1       5.191   4.248   1.656  1.00  0.00     0.021 A 
ATOM     42  C   UNL     1       5.650   5.142   0.701  1.00  0.00     0.111 A 
ENDBRANCH  35  37
ENDBRANCH  34  35
ENDBRANCH   3  34
BRANCH   5  43
ATOM     43  O   UNL     1       0.439  -2.098  -0.599  1.00  0.00    -0.450 OA
BRANCH  43  44
ATOM     44  C   UNL     1       0.253  -3.413  -0.876  1.00  0.00     0.340 C 
ATOM     45  O   UNL     1       0.181  -4.312  -0.052  1.00  0.00    -0.246 OA
BRANCH  44  46
ATOM     46  C   UNL     1       0.156  -3.636  -2.334  1.00  0.00     0.078 A 
ATOM     47  C   UNL     1       0.201  -2.604  -3.264  1.00  0.00     0.126 A 
ATOM     48  C   UNL     1       0.012  -4.941  -2.815  1.00  0.00     0.019 A 
ATOM     49  N   UNL     1       0.114  -2.791  -4.605  1.00  0.00    -0.264 NA
ATOM     50  C   UNL     1      -0.078  -5.163  -4.188  1.00  0.00     0.021 A 
ATOM     51  C   UNL     1      -0.023  -4.066  -5.035  1.00  0.00     0.111 A 
ENDBRANCH  44  46
ENDBRANCH  43  44
ENDBRANCH   5  43
BRANCH   4  52
ATOM     52  O   UNL     1       2.859  -1.212   0.443  1.00  0.00    -0.450 OA
BRANCH  52  53
ATOM     53  C   UNL     1       3.994  -0.880   1.104  1.00  0.00     0.340 C 
ATOM     54  O   UNL     1       4.061  -0.211   2.123  1.00  0.00    -0.246 OA
BRANCH  53  55
ATOM     55  C   UNL     1       5.181  -1.433   0.418  1.00  0.00     0.078 A 
ATOM     56  C   UNL     1       5.093  -2.193  -0.741  1.00  0.00     0.126 A 
ATOM     57  C   UNL     1       6.454  -1.189   0.940  1.00  0.00     0.019 A 
ATOM     58  N   UNL     1       6.168  -2.711  -1.389  1.00  0.00    -0.264 NA
ATOM     59  C   UNL     1       7.574  -1.709   0.294  1.00  0.00     0.021 A 
ATOM     60  C   UNL     1       7.382  -2.457  -0.856  1.00  0.00     0.111 A 
ENDBRANCH  53  55
ENDBRANCH  52  53
ENDBRANCH   4  52
TORSDOF 18
