REMARK SMILES O=c1[nH]c(=S)[nH]cc1I
REMARK SMILES IDX 9 1 8 2 7 3 6 4 4 5 5 6 3 7 2 8 1 9
REMARK H PARENT 6 10 3 11
ROOT
ATOM      1  I   UNL     1       3.411  -0.336   0.066  1.00  0.00    -0.037 I 
ATOM      2  C   UNL     1       1.376  -0.165   0.026  1.00  0.00     0.094 C 
ATOM      3  C   UNL     1       0.568  -1.234  -0.017  1.00  0.00     0.105 C 
ATOM      4  N   UNL     1      -0.797  -1.110  -0.044  1.00  0.00    -0.338 N 
ATOM      5  C   UNL     1      -1.436   0.096  -0.029  1.00  0.00     0.177 C 
ATOM      6  S   UNL     1      -3.093   0.207  -0.062  1.00  0.00    -0.040 S 
ATOM      7  N   UNL     1      -0.637   1.202   0.015  1.00  0.00    -0.298 N 
ATOM      8  C   UNL     1       0.738   1.188   0.045  1.00  0.00     0.265 C 
ATOM      9  O   UNL     1       1.376   2.235   0.084  1.00  0.00    -0.268 OA
ATOM     10  H   UNL     1      -1.380  -1.943  -0.077  1.00  0.00     0.168 HD
ATOM     11  H   UNL     1      -1.074   2.112   0.028  1.00  0.00     0.172 HD
ENDROOT
TORSDOF 0
