REMARK SMILES COC(=O)[C@H]1[C@@H](c2ccc([123I])cc2)C[C@@H]2CC[C@H]1N2CCCF
REMARK SMILES IDX 5 1 18 2 17 3 16 4 15 5 14 6 6 7 19 8 3 9 4 10 2 11 1 12
REMARK SMILES IDX 7 13 8 14 13 15 9 16 12 17 10 18 11 19 20 20 21 21 22 22
REMARK SMILES IDX 23 23
REMARK H PARENT
ROOT
ATOM      1  C   UNL     1      -0.550   0.769   0.509  1.00  0.00     0.124 C 
ATOM      2  C   UNL     1       0.988   0.825   0.711  1.00  0.00     0.071 C 
ATOM      3  C   UNL     1       1.372   0.395   2.133  1.00  0.00     0.022 C 
ATOM      4  C   UNL     1       1.571  -1.121   2.046  1.00  0.00     0.021 C 
ATOM      5  C   UNL     1       1.305  -1.467   0.578  1.00  0.00     0.057 C 
ATOM      6  C   UNL     1      -0.189  -1.778   0.317  1.00  0.00     0.028 C 
ATOM      7  C   UNL     1      -1.122  -0.644   0.822  1.00  0.00     0.036 C 
ATOM      8  N   UNL     1       1.562  -0.221  -0.139  1.00  0.00    -0.296 NA
ENDROOT
BRANCH   1   9
ATOM      9  C   UNL     1      -0.875   1.269  -0.892  1.00  0.00     0.310 C 
ATOM     10  O   UNL     1      -1.046   0.580  -1.888  1.00  0.00    -0.252 OA
BRANCH   9  11
ATOM     11  O   UNL     1      -0.936   2.636  -0.879  1.00  0.00    -0.469 OA
ATOM     12  C   UNL     1      -1.226   3.211  -2.153  1.00  0.00     0.282 C 
ENDBRANCH   9  11
ENDBRANCH   1   9
BRANCH   7  13
ATOM     13  C   UNL     1      -2.606  -0.795   0.518  1.00  0.00    -0.044 A 
ATOM     14  C   UNL     1      -3.544  -0.274   1.426  1.00  0.00     0.005 A 
ATOM     15  C   UNL     1      -3.084  -1.414  -0.645  1.00  0.00     0.005 A 
ATOM     16  C   UNL     1      -4.917  -0.380   1.186  1.00  0.00     0.015 A 
ATOM     17  C   UNL     1      -4.457  -1.521  -0.890  1.00  0.00     0.015 A 
ATOM     18  C   UNL     1      -5.368  -1.006   0.028  1.00  0.00     0.013 A 
ATOM     19  I   UNL     1      -7.407  -1.164  -0.337  1.00  0.00    -0.044 I 
ENDBRANCH   7  13
BRANCH   8  20
ATOM     20  C   UNL     1       2.899   0.001  -0.681  1.00  0.00     0.088 C 
BRANCH  20  21
ATOM     21  C   UNL     1       4.096  -0.003   0.271  1.00  0.00     0.050 C 
BRANCH  21  22
ATOM     22  C   UNL     1       5.390   0.237  -0.489  1.00  0.00     0.216 C 
ATOM     23  F   UNL     1       5.363   1.480  -1.039  1.00  0.00    -0.251 F 
ENDBRANCH  21  22
ENDBRANCH  20  21
ENDBRANCH   8  20
TORSDOF 6
