REMARK SMILES CC(C)N1CC(O)C2=CC(=NNC(N)=O)C(=O)C=C21
REMARK SMILES IDX 4 1 5 2 6 3 8 4 9 5 10 6 11 7 16 8 17 9 18 10 19 11 2 12
REMARK SMILES IDX 1 13 3 14 7 15 12 17 13 18 14 19 15 20
REMARK H PARENT 7 16 12 21 14 22 14 23
ROOT
ATOM      1  N   UNL     1      -1.939  -0.090  -0.233  1.00  0.00    -0.366 N 
ATOM      2  C   UNL     1      -1.942  -1.480  -0.728  1.00  0.00     0.153 C 
ATOM      3  C   UNL     1      -0.449  -1.859  -0.811  1.00  0.00     0.166 C 
ATOM      4  C   UNL     1       0.239  -0.803   0.013  1.00  0.00     0.008 C 
ATOM      5  C   UNL     1       1.526  -0.795   0.372  1.00  0.00     0.043 C 
ATOM      6  C   UNL     1       2.057   0.367   1.137  1.00  0.00     0.131 C 
ATOM      7  N   UNL     1       3.291   0.586   1.486  1.00  0.00    -0.168 NA
ATOM      8  C   UNL     1       1.020   1.402   1.593  1.00  0.00     0.208 C 
ATOM      9  O   UNL     1       1.309   2.292   2.383  1.00  0.00    -0.287 OA
ATOM     10  C   UNL     1      -0.359   1.296   1.068  1.00  0.00     0.080 C 
ATOM     11  C   UNL     1      -0.718   0.243   0.329  1.00  0.00     0.047 C 
ENDROOT
BRANCH   1  12
ATOM     12  C   UNL     1      -3.243   0.567  -0.094  1.00  0.00     0.076 C 
ATOM     13  C   UNL     1      -3.234   1.961  -0.714  1.00  0.00     0.030 C 
ATOM     14  C   UNL     1      -3.721   0.577   1.355  1.00  0.00     0.030 C 
ENDBRANCH   1  12
BRANCH   3  15
ATOM     15  O   UNL     1       0.018  -1.781  -2.156  1.00  0.00    -0.386 OA
ATOM     16  H   UNL     1       0.001  -0.837  -2.401  1.00  0.00     0.211 HD
ENDBRANCH   3  15
BRANCH   7  17
ATOM     17  N   UNL     1       4.284  -0.241   1.012  1.00  0.00    -0.228 N 
ATOM     18  C   UNL     1       4.574  -0.271  -0.344  1.00  0.00     0.332 C 
ATOM     19  N   UNL     1       5.721  -0.965  -0.603  1.00  0.00    -0.350 N 
ATOM     20  O   UNL     1       3.916   0.217  -1.253  1.00  0.00    -0.247 OA
ATOM     21  H   UNL     1       5.134  -0.141   1.559  1.00  0.00     0.195 HD
ATOM     22  H   UNL     1       5.877  -1.101  -1.595  1.00  0.00     0.161 HD
ATOM     23  H   UNL     1       5.891  -1.783  -0.037  1.00  0.00     0.161 HD
ENDBRANCH   7  17
TORSDOF 3
