REMARK SMILES CC(CC(C#N)(c1ccccc1)C(C)C)N(C)C
REMARK SMILES IDX 3 1 4 2 5 3 6 4 13 5 14 6 15 7 7 8 8 9 12 10 9 11 11 12
REMARK SMILES IDX 10 13 2 14 1 15 16 16 17 17 18 18
REMARK H PARENT
ROOT
ATOM      1  C   UNL     1      -0.607  -0.777   0.871  1.00  0.00     0.046 C 
ENDROOT
BRANCH   1   2
ATOM      2  C   UNL     1       0.378  -0.857  -0.355  1.00  0.00     0.086 C 
ATOM      3  C   UNL     1      -0.456  -1.130  -1.575  1.00  0.00     0.074 C 
ATOM      4  N   UNL     1      -1.050  -1.409  -2.535  1.00  0.00    -0.197 NA
BRANCH   2   5
ATOM      5  C   UNL     1       1.317  -2.142  -0.206  1.00  0.00     0.008 C 
ATOM      6  C   UNL     1       2.334  -2.295  -1.355  1.00  0.00     0.009 C 
ATOM      7  C   UNL     1       2.077  -2.283   1.121  1.00  0.00     0.009 C 
ENDBRANCH   2   5
BRANCH   2   8
ATOM      8  C   UNL     1       1.232   0.428  -0.490  1.00  0.00    -0.027 A 
ATOM      9  C   UNL     1       1.452   1.045  -1.738  1.00  0.00     0.005 A 
ATOM     10  C   UNL     1       1.842   1.022   0.633  1.00  0.00     0.005 A 
ATOM     11  C   UNL     1       2.232   2.200  -1.854  1.00  0.00     0.000 A 
ATOM     12  C   UNL     1       2.622   2.177   0.517  1.00  0.00     0.000 A 
ATOM     13  C   UNL     1       2.816   2.766  -0.727  1.00  0.00     0.000 A 
ENDBRANCH   2   8
ENDBRANCH   1   2
BRANCH   1  14
ATOM     14  C   UNL     1      -1.557   0.456   0.948  1.00  0.00     0.054 C 
ATOM     15  C   UNL     1      -2.282   0.455   2.305  1.00  0.00     0.024 C 
BRANCH  14  16
ATOM     16  N   UNL     1      -2.454   0.548  -0.211  1.00  0.00    -0.307 NA
ATOM     17  C   UNL     1      -3.581  -0.383  -0.205  1.00  0.00     0.105 C 
ATOM     18  C   UNL     1      -2.925   1.913  -0.448  1.00  0.00     0.105 C 
ENDBRANCH  14  16
ENDBRANCH   1  14
TORSDOF 5
