REMARK SMILES Clc1ccc([C@H](Cn2ccnc2)OCc2c(Cl)cccc2Cl)c(Cl)c1
REMARK SMILES IDX 13 1 6 2 5 3 2 4 3 5 25 6 4 7 23 8 1 9 24 10 7 11 8 12 9 13
REMARK SMILES IDX 12 14 10 15 11 16 14 17 15 18 16 19 21 20 18 21 20 22 19 23
REMARK SMILES IDX 17 24 22 25
REMARK H PARENT
ROOT
ATOM      1  O   UNL     1       0.053   0.188   1.308  1.00  0.00    -0.367 OA
ENDROOT
BRANCH   1   2
ATOM      2  C   UNL     1      -0.698   0.649   0.171  1.00  0.00     0.170 C 
BRANCH   2   3
ATOM      3  C   UNL     1      -1.224   2.053   0.439  1.00  0.00     0.001 A 
ATOM      4  C   UNL     1      -2.228   4.625   0.974  1.00  0.00     0.042 A 
ATOM      5  C   UNL     1      -2.008   3.738   2.022  1.00  0.00     0.021 A 
ATOM      6  C   UNL     1      -1.965   4.245  -0.338  1.00  0.00     0.041 A 
ATOM      7  C   UNL     1      -1.513   2.459   1.757  1.00  0.00     0.009 A 
ATOM      8  C   UNL     1      -1.471   2.965  -0.604  1.00  0.00     0.048 A 
ATOM      9  Cl  UNL     1      -2.838   6.200   1.302  1.00  0.00    -0.084 Cl
ATOM     10  Cl  UNL     1      -1.200   2.549  -2.260  1.00  0.00    -0.084 Cl
ENDBRANCH   2   3
BRANCH   2  11
ATOM     11  C   UNL     1      -1.869  -0.319  -0.060  1.00  0.00     0.160 C 
BRANCH  11  12
ATOM     12  N   UNL     1      -1.426  -1.569  -0.653  1.00  0.00    -0.335 N 
ATOM     13  C   UNL     1      -1.237  -2.756  -0.005  1.00  0.00     0.107 A 
ATOM     14  C   UNL     1      -1.140  -1.768  -1.974  1.00  0.00     0.199 A 
ATOM     15  C   UNL     1      -0.816  -3.629  -0.981  1.00  0.00     0.130 A 
ATOM     16  N   UNL     1      -0.758  -3.005  -2.200  1.00  0.00    -0.245 NA
ENDBRANCH  11  12
ENDBRANCH   2  11
ENDBRANCH   1   2
BRANCH   1  17
ATOM     17  C   UNL     1       1.460   0.427   1.209  1.00  0.00     0.199 C 
BRANCH  17  18
ATOM     18  C   UNL     1       2.147  -0.706   0.487  1.00  0.00     0.015 A 
ATOM     19  C   UNL     1       2.706  -0.544  -0.795  1.00  0.00     0.048 A 
ATOM     20  C   UNL     1       2.229  -1.986   1.073  1.00  0.00     0.048 A 
ATOM     21  C   UNL     1       3.303  -1.618  -1.466  1.00  0.00     0.021 A 
ATOM     22  C   UNL     1       2.830  -3.056   0.400  1.00  0.00     0.021 A 
ATOM     23  C   UNL     1       3.363  -2.874  -0.871  1.00  0.00     0.003 A 
ATOM     24  Cl  UNL     1       2.701   0.976  -1.623  1.00  0.00    -0.084 Cl
ATOM     25  Cl  UNL     1       1.605  -2.314   2.655  1.00  0.00    -0.084 Cl
ENDBRANCH  17  18
ENDBRANCH   1  17
TORSDOF 6
