REMARK SMILES O=C(O)Cc1c(-c2ccccc2)c(-c2ccccc2)nn1-c1ccccc1
REMARK SMILES IDX 2 1 1 2 3 3 4 5 5 6 6 7 21 8 13 9 20 10 7 11 8 12 12 13 9 14
REMARK SMILES IDX 11 15 10 16 22 17 23 18 27 19 24 20 26 21 25 22 14 23 15 24
REMARK SMILES IDX 19 25 16 26 18 27 17 28
REMARK H PARENT 3 4
ROOT
ATOM      1  C   UNL     1       1.631  -2.343  -1.851  1.00  0.00     0.309 C 
ATOM      2  O   UNL     1       1.005  -1.851  -2.777  1.00  0.00    -0.252 OA
ENDROOT
BRANCH   1   3
ATOM      3  O   UNL     1       2.572  -3.278  -2.098  1.00  0.00    -0.481 OA
ATOM      4  H   UNL     1       2.555  -3.370  -3.075  1.00  0.00     0.296 HD
ENDBRANCH   1   3
BRANCH   1   5
ATOM      5  C   UNL     1       1.488  -2.066  -0.371  1.00  0.00     0.179 C 
BRANCH   5   6
ATOM      6  C   UNL     1       0.854  -0.734  -0.123  1.00  0.00     0.064 A 
ATOM      7  C   UNL     1      -0.476  -0.479   0.200  1.00  0.00     0.032 A 
ATOM      8  N   UNL     1       1.484   0.512  -0.166  1.00  0.00    -0.236 N 
ATOM      9  C   UNL     1      -0.565   0.918   0.418  1.00  0.00     0.101 A 
ATOM     10  N   UNL     1       0.627   1.491   0.234  1.00  0.00    -0.167 NA
BRANCH   7  11
ATOM     11  C   UNL     1      -1.486  -1.512   0.344  1.00  0.00    -0.014 A 
ATOM     12  C   UNL     1      -2.023  -1.799   1.606  1.00  0.00     0.009 A 
ATOM     13  C   UNL     1      -1.952  -2.204  -0.781  1.00  0.00     0.009 A 
ATOM     14  C   UNL     1      -3.014  -2.773   1.740  1.00  0.00     0.001 A 
ATOM     15  C   UNL     1      -2.941  -3.180  -0.643  1.00  0.00     0.001 A 
ATOM     16  C   UNL     1      -3.472  -3.462   0.616  1.00  0.00     0.000 A 
ENDBRANCH   7  11
BRANCH   8  17
ATOM     17  C   UNL     1       2.821   0.919  -0.520  1.00  0.00     0.065 A 
ATOM     18  C   UNL     1       3.835   0.039  -0.909  1.00  0.00     0.028 A 
ATOM     19  C   UNL     1       3.130   2.297  -0.487  1.00  0.00     0.028 A 
ATOM     20  C   UNL     1       5.109   0.518  -1.248  1.00  0.00     0.002 A 
ATOM     21  C   UNL     1       4.399   2.772  -0.834  1.00  0.00     0.002 A 
ATOM     22  C   UNL     1       5.391   1.881  -1.210  1.00  0.00     0.000 A 
ENDBRANCH   8  17
BRANCH   9  23
ATOM     23  C   UNL     1      -1.721   1.723   0.819  1.00  0.00     0.003 A 
ATOM     24  C   UNL     1      -1.554   2.794   1.710  1.00  0.00     0.010 A 
ATOM     25  C   UNL     1      -3.004   1.454   0.325  1.00  0.00     0.010 A 
ATOM     26  C   UNL     1      -2.646   3.564   2.113  1.00  0.00     0.001 A 
ATOM     27  C   UNL     1      -4.098   2.222   0.733  1.00  0.00     0.001 A 
ATOM     28  C   UNL     1      -3.918   3.274   1.628  1.00  0.00     0.000 A 
ENDBRANCH   9  23
ENDBRANCH   5   6
ENDBRANCH   1   5
TORSDOF 6
