REMARK SMILES CCC(=O)C(c1ccccc1)(c1ccccc1)C(C)CN(C)C
REMARK SMILES IDX 5 1 3 2 4 3 2 4 1 5 18 6 19 7 20 8 21 9 22 10 23 11 6 12
REMARK SMILES IDX 7 13 11 14 8 15 10 16 9 17 12 18 13 19 17 20 14 21 16 22
REMARK SMILES IDX 15 23
REMARK H PARENT
ROOT
ATOM      1  C   UNL     1      -0.498  -0.066   0.452  1.00  0.00     0.082 C 
ENDROOT
BRANCH   1   2
ATOM      2  C   UNL     1      -0.961  -0.448   1.936  1.00  0.00     0.147 C 
ATOM      3  O   UNL     1      -1.128  -1.613   2.312  1.00  0.00    -0.298 OA
BRANCH   2   4
ATOM      4  C   UNL     1      -1.157   0.679   2.959  1.00  0.00     0.073 C 
ATOM      5  C   UNL     1      -0.939   0.203   4.388  1.00  0.00     0.012 C 
ENDBRANCH   2   4
ENDBRANCH   1   2
BRANCH   1   6
ATOM      6  C   UNL     1       1.095  -0.229   0.457  1.00  0.00     0.022 C 
ATOM      7  C   UNL     1       1.838   0.557   1.556  1.00  0.00     0.011 C 
BRANCH   6   8
ATOM      8  C   UNL     1       1.776   0.006  -0.927  1.00  0.00     0.088 C 
BRANCH   8   9
ATOM      9  N   UNL     1       2.612  -1.126  -1.376  1.00  0.00    -0.309 NA
ATOM     10  C   UNL     1       2.943  -0.979  -2.795  1.00  0.00     0.104 C 
ATOM     11  C   UNL     1       3.837  -1.276  -0.592  1.00  0.00     0.104 C 
ENDBRANCH   8   9
ENDBRANCH   6   8
ENDBRANCH   1   6
BRANCH   1  12
ATOM     12  C   UNL     1      -1.073   1.351   0.130  1.00  0.00    -0.030 A 
ATOM     13  C   UNL     1      -2.474   1.550   0.206  1.00  0.00     0.005 A 
ATOM     14  C   UNL     1      -0.296   2.454  -0.253  1.00  0.00     0.005 A 
ATOM     15  C   UNL     1      -3.058   2.789  -0.067  1.00  0.00     0.000 A 
ATOM     16  C   UNL     1      -0.881   3.697  -0.526  1.00  0.00     0.000 A 
ATOM     17  C   UNL     1      -2.259   3.865  -0.430  1.00  0.00     0.000 A 
ENDBRANCH   1  12
BRANCH   1  18
ATOM     18  C   UNL     1      -1.046  -1.128  -0.592  1.00  0.00    -0.030 A 
ATOM     19  C   UNL     1      -1.613  -0.744  -1.828  1.00  0.00     0.005 A 
ATOM     20  C   UNL     1      -0.899  -2.513  -0.377  1.00  0.00     0.005 A 
ATOM     21  C   UNL     1      -2.060  -1.687  -2.761  1.00  0.00     0.000 A 
ATOM     22  C   UNL     1      -1.345  -3.457  -1.308  1.00  0.00     0.000 A 
ATOM     23  C   UNL     1      -1.933  -3.045  -2.497  1.00  0.00     0.000 A 
ENDBRANCH   1  18
TORSDOF 7
