REMARK SMILES O[C@@H]1CO[C@H]2[C@@H]1OC[C@@H]2O
REMARK SMILES IDX 9 1 8 2 7 3 6 4 2 5 3 6 4 7 5 8 10 9 1 11
REMARK H PARENT 10 10 1 12
ROOT
ATOM      1  C   UNL     1       1.332  -0.081   0.705  1.00  0.00     0.171 C 
ATOM      2  C   UNL     1       1.698   1.115  -0.161  1.00  0.00     0.195 C 
ATOM      3  O   UNL     1       0.541   1.449  -0.943  1.00  0.00    -0.370 OA
ATOM      4  C   UNL     1      -0.315   0.306  -0.972  1.00  0.00     0.181 C 
ATOM      5  C   UNL     1      -1.666   0.497  -0.296  1.00  0.00     0.171 C 
ATOM      6  C   UNL     1      -1.973  -0.931   0.130  1.00  0.00     0.195 C 
ATOM      7  O   UNL     1      -0.710  -1.465   0.584  1.00  0.00    -0.370 OA
ATOM      8  C   UNL     1       0.326  -0.812  -0.169  1.00  0.00     0.181 C 
ENDROOT
BRANCH   1   9
ATOM      9  O   UNL     1       2.465  -0.870   1.048  1.00  0.00    -0.388 OA
ATOM     10  H   UNL     1       2.809  -1.294   0.243  1.00  0.00     0.211 HD
ENDBRANCH   1   9
BRANCH   5  11
ATOM     11  O   UNL     1      -1.592   1.342   0.858  1.00  0.00    -0.388 OA
ATOM     12  H   UNL     1      -1.231   0.820   1.595  1.00  0.00     0.211 HD
ENDBRANCH   5  11
TORSDOF 2
