REMARK SMILES COc1cc2c(cc1OC)CC(=O)N(CCCN(C)C[C@H]1Cc3cc(OC)c(OC)cc31)CC2
REMARK SMILES IDX 16 1 17 2 18 3 19 4 20 5 21 6 25 7 28 8 24 9 31 10 23 11
REMARK SMILES IDX 32 12 22 13 26 14 27 15 29 16 30 17 15 18 14 19 33 20 34 21
REMARK SMILES IDX 5 22 4 23 6 24 3 25 7 26 8 27 11 28 2 30 1 31 9 32 10 33
REMARK SMILES IDX 12 34 13 35
REMARK H PARENT
REMARK Flexibility Score:  160.900
ROOT
ATOM      1  C   UNL     1       0.229  -0.403  -1.708  1.00  0.00     0.037 C 
ENDROOT
BRANCH   1   2
ATOM      2  C   UNL     1      -1.240  -0.294  -2.148  1.00  0.00     0.086 C 
BRANCH   2   3
ATOM      3  N   UNL     1      -2.270  -1.098  -1.480  1.00  0.00    -0.306 NA
ATOM      4  C   UNL     1      -2.414  -2.440  -2.030  1.00  0.00     0.105 C 
BRANCH   3   5
ATOM      5  C   UNL     1      -2.156  -1.077  -0.009  1.00  0.00     0.092 C 
BRANCH   5   6
ATOM      6  C   UNL     1      -3.450  -1.502   0.694  1.00  0.00     0.038 C 
ATOM      7  C   UNL     1      -6.467   1.189   1.674  1.00  0.00     0.161 A 
ATOM      8  C   UNL     1      -6.382   1.004   0.263  1.00  0.00     0.161 A 
ATOM      9  C   UNL     1      -5.575   0.527   2.529  1.00  0.00     0.054 A 
ATOM     10  C   UNL     1      -5.426   0.134  -0.275  1.00  0.00     0.054 A 
ATOM     11  C   UNL     1      -4.649  -0.314   1.956  1.00  0.00    -0.040 A 
ATOM     12  C   UNL     1      -4.584  -0.510   0.602  1.00  0.00    -0.036 A 
ATOM     13  C   UNL     1      -3.498  -1.234   2.244  1.00  0.00     0.045 C 
BRANCH   7  14
ATOM     14  O   UNL     1      -7.446   2.054   2.106  1.00  0.00    -0.493 OA
ATOM     15  C   UNL     1      -7.734   2.065   3.497  1.00  0.00     0.278 C 
ENDBRANCH   7  14
BRANCH   8  16
ATOM     16  O   UNL     1      -7.289   1.713  -0.490  1.00  0.00    -0.493 OA
ATOM     17  C   UNL     1      -7.161   1.631  -1.904  1.00  0.00     0.278 C 
ENDBRANCH   8  16
ENDBRANCH   5   6
ENDBRANCH   3   5
ENDBRANCH   2   3
ENDBRANCH   1   2
BRANCH   1  18
ATOM     18  C   UNL     1       0.880  -1.752  -1.991  1.00  0.00     0.121 C 
BRANCH  18  19
ATOM     19  N   UNL     1       2.310  -1.769  -1.674  1.00  0.00    -0.342 N 
BRANCH  19  20
ATOM     20  C   UNL     1       3.255  -1.224  -2.645  1.00  0.00     0.124 C 
BRANCH  20  21
ATOM     21  C   UNL     1       3.806   0.146  -2.247  1.00  0.00     0.057 C 
BRANCH  21  22
ATOM     22  C   UNL     1       4.675   0.254  -1.009  1.00  0.00    -0.039 A 
ATOM     23  C   UNL     1       5.330   1.492  -0.823  1.00  0.00     0.054 A 
ATOM     24  C   UNL     1       4.844  -0.748  -0.040  1.00  0.00    -0.031 A 
ATOM     25  C   UNL     1       6.149   1.739   0.282  1.00  0.00     0.161 A 
ATOM     26  C   UNL     1       5.697  -0.501   1.060  1.00  0.00     0.055 A 
ATOM     27  C   UNL     1       6.343   0.727   1.231  1.00  0.00     0.161 A 
BRANCH  24  28
ATOM     28  C   UNL     1       4.203  -2.115  -0.128  1.00  0.00     0.136 CG0
ATOM     29  G   UNL     1       2.709  -2.095  -0.383  1.00  0.00     0.000 G0
ENDBRANCH  24  28
BRANCH  25  30
ATOM     30  O   UNL     1       6.814   2.920   0.502  1.00  0.00    -0.493 OA
ATOM     31  C   UNL     1       6.362   4.059  -0.215  1.00  0.00     0.278 C 
ENDBRANCH  25  30
BRANCH  27  32
ATOM     32  O   UNL     1       7.173   1.030   2.281  1.00  0.00    -0.493 OA
ATOM     33  C   UNL     1       7.252   0.096   3.347  1.00  0.00     0.278 C 
ENDBRANCH  27  32
ENDBRANCH  21  22
ENDBRANCH  20  21
ENDBRANCH  19  20
BRANCH  19  34
ATOM     34  C   UNL     1       2.709  -2.095  -0.383  1.00  0.00     0.227 CG0
ATOM     35  O   UNL     1       1.909  -2.387   0.508  1.00  0.00    -0.275 OA
ATOM     36  G   UNL     1       4.203  -2.115  -0.128  1.00  0.00     0.000 G0
ENDBRANCH  19  34
ENDBRANCH  18  19
ENDBRANCH   1  18
TORSDOF 10
