REMARK SMILES CC(C)(C)c1cc(C(C)(C)C)c(NC(=O)c2c[nH]c3ccccc3c2=O)cc1O
REMARK SMILES IDX 5 1 6 2 7 3 12 4 27 5 28 6 2 7 1 8 3 9 4 10 29 11 8 13 9 14
REMARK SMILES IDX 10 15 11 16 13 17 14 18 15 19 16 21 17 22 25 23 18 24 24 25
REMARK SMILES IDX 26 26 19 27 23 28 20 29 22 30 21 31
REMARK H PARENT 29 12 13 20 18 32
ROOT
ATOM      1  C   UNL     1      -3.456   0.689   0.665  1.00  0.00    -0.000 A 
ATOM      2  C   UNL     1      -2.799  -0.114  -0.292  1.00  0.00     0.014 A 
ATOM      3  C   UNL     1      -1.386  -0.293  -0.371  1.00  0.00    -0.018 A 
ATOM      4  C   UNL     1      -0.592   0.394   0.588  1.00  0.00     0.048 A 
ATOM      5  C   UNL     1      -1.239   1.194   1.543  1.00  0.00     0.072 A 
ATOM      6  C   UNL     1      -2.629   1.336   1.581  1.00  0.00     0.121 A 
ENDROOT
BRANCH   1   7
ATOM      7  C   UNL     1      -4.994   0.834   0.685  1.00  0.00    -0.010 C 
ATOM      8  C   UNL     1      -5.718   0.024  -0.422  1.00  0.00     0.016 C 
ATOM      9  C   UNL     1      -5.397   2.310   0.469  1.00  0.00     0.016 C 
ATOM     10  C   UNL     1      -5.566   0.328   2.029  1.00  0.00     0.016 C 
ENDBRANCH   1   7
BRANCH   6  11
ATOM     11  O   UNL     1      -3.171   2.137   2.550  1.00  0.00    -0.508 OA
ATOM     12  H   UNL     1      -2.456   2.488   3.105  1.00  0.00     0.293 HD
ENDBRANCH   6  11
BRANCH   3  13
ATOM     13  C   UNL     1      -0.821  -1.219  -1.488  1.00  0.00    -0.011 C 
ATOM     14  C   UNL     1       0.062  -0.410  -2.467  1.00  0.00     0.016 C 
ATOM     15  C   UNL     1      -1.906  -1.870  -2.400  1.00  0.00     0.016 C 
ATOM     16  C   UNL     1      -0.073  -2.424  -0.873  1.00  0.00     0.016 C 
ENDBRANCH   3  13
BRANCH   4  17
ATOM     17  N   UNL     1       0.829   0.293   0.592  1.00  0.00    -0.321 N 
ATOM     18  C   UNL     1       1.738   0.875   1.458  1.00  0.00     0.261 C 
ATOM     19  O   UNL     1       1.466   1.587   2.423  1.00  0.00    -0.269 OA
ATOM     20  H   UNL     1       1.245  -0.283  -0.133  1.00  0.00     0.170 HD
BRANCH  18  21
ATOM     21  C   UNL     1       3.178   0.584   1.155  1.00  0.00     0.104 C 
ATOM     22  C   UNL     1       4.118   1.140   1.939  1.00  0.00     0.100 C 
ATOM     23  C   UNL     1       3.666  -0.269   0.035  1.00  0.00     0.202 C 
ATOM     24  N   UNL     1       5.473   0.978   1.799  1.00  0.00    -0.360 N 
ATOM     25  C   UNL     1       5.134  -0.412  -0.158  1.00  0.00     0.046 A 
ATOM     26  O   UNL     1       2.884  -0.841  -0.719  1.00  0.00    -0.288 OA
ATOM     27  C   UNL     1       6.000   0.242   0.733  1.00  0.00     0.049 A 
ATOM     28  C   UNL     1       5.637  -1.182  -1.212  1.00  0.00     0.014 A 
ATOM     29  C   UNL     1       7.379   0.097   0.566  1.00  0.00     0.027 A 
ATOM     30  C   UNL     1       7.016  -1.308  -1.375  1.00  0.00     0.001 A 
ATOM     31  C   UNL     1       7.885  -0.671  -0.488  1.00  0.00     0.002 A 
ATOM     32  H   UNL     1       6.093   1.538   2.373  1.00  0.00     0.166 HD
ENDBRANCH  18  21
ENDBRANCH   4  17
TORSDOF 5
