REMARK SMILES CC(C)C[C@H](NC(=O)CNC(=O)c1cc(Cl)ccc1Cl)B(O)O
REMARK SMILES IDX 6 1 7 2 8 3 5 5 4 6 2 7 1 8 3 9 21 10 22 11 23 13 9 15 10 16
REMARK SMILES IDX 11 17 12 18 13 20 19 21 14 22 18 23 15 24 17 25 20 26 16 27
REMARK H PARENT 6 4 22 12 23 14 10 19
ROOT
ATOM      1  N   UNL     1      -0.476  -0.310   1.288  1.00  0.00    -0.353 N 
ATOM      2  C   UNL     1      -0.064  -0.719   2.583  1.00  0.00     0.239 C 
ATOM      3  O   UNL     1      -0.942  -1.031   3.435  1.00  0.00    -0.273 OA
ATOM      4  H   UNL     1       0.219  -0.051   0.584  1.00  0.00     0.163 HD
ENDROOT
BRANCH   1   5
ATOM      5  C   UNL     1      -1.896  -0.242   0.915  1.00  0.00     0.114 C 
BRANCH   5   6
ATOM      6  C   UNL     1      -2.266   1.161   0.549  1.00  0.00     0.025 C 
BRANCH   6   7
ATOM      7  C   UNL     1      -3.710   1.321   0.152  1.00  0.00    -0.016 C 
ATOM      8  C   UNL     1      -3.922   2.791  -0.187  1.00  0.00     0.007 C 
ATOM      9  C   UNL     1      -4.095   0.540  -1.069  1.00  0.00     0.007 C 
ENDBRANCH   6   7
ENDBRANCH   5   6
BRANCH   5  10
ATOM     10  B   UNL     1      -2.137  -1.257  -0.280  1.00  0.00     0.475 B 
BRANCH  10  11
ATOM     11  O   UNL     1      -1.249  -1.263  -1.450  1.00  0.00    -0.426 OA
ATOM     12  H   UNL     1      -1.005  -2.171  -1.702  1.00  0.00     0.189 HD
ENDBRANCH  10  11
BRANCH  10  13
ATOM     13  O   UNL     1      -2.859  -2.506   0.003  1.00  0.00    -0.426 OA
ATOM     14  H   UNL     1      -3.206  -2.519   0.919  1.00  0.00     0.189 HD
ENDBRANCH  10  13
ENDBRANCH   5  10
ENDBRANCH   1   5
BRANCH   2  15
ATOM     15  C   UNL     1       1.348  -0.808   3.014  1.00  0.00     0.216 C 
BRANCH  15  16
ATOM     16  N   UNL     1       2.298  -0.448   2.015  1.00  0.00    -0.343 N 
ATOM     17  C   UNL     1       2.423  -1.116   0.753  1.00  0.00     0.253 C 
ATOM     18  O   UNL     1       1.652  -2.091   0.486  1.00  0.00    -0.269 OA
ATOM     19  H   UNL     1       2.987   0.355   2.146  1.00  0.00     0.164 HD
BRANCH  17  20
ATOM     20  C   UNL     1       3.419  -0.706  -0.242  1.00  0.00     0.059 A 
ATOM     21  C   UNL     1       4.421  -1.558  -0.678  1.00  0.00     0.053 A 
ATOM     22  C   UNL     1       3.301   0.592  -0.722  1.00  0.00     0.036 A 
ATOM     23  C   UNL     1       5.328  -1.096  -1.620  1.00  0.00     0.023 A 
ATOM     24  C   UNL     1       4.229   1.029  -1.670  1.00  0.00     0.041 A 
ATOM     25  C   UNL     1       5.243   0.207  -2.129  1.00  0.00     0.022 A 
ATOM     26  Cl  UNL     1       4.510  -3.192  -0.027  1.00  0.00    -0.083 Cl
ATOM     27  Cl  UNL     1       4.080   2.678  -2.281  1.00  0.00    -0.084 Cl
ENDBRANCH  17  20
ENDBRANCH  15  16
ENDBRANCH   2  15
TORSDOF 9
