REMARK SMILES C[C@@H]1O[C@@H](OC[C@H]2O[C@@H](Oc3cc4c(O)cc(O)cc4[o+]c3-c3ccc(O)c(O)c3)[C@H](O)[C@@H](O)[C@@H]2O)[C@H](O)[C@H](O)[C@H]1O
REMARK SMILES IDX 7 1 8 2 9 3 31 4 33 5 35 6 6 7 5 8 4 9 2 10 3 11 41 12 39 13
REMARK SMILES IDX 37 14 1 15 42 16 40 18 38 20 36 22 10 24 11 25 12 26 22 27
REMARK SMILES IDX 13 28 21 29 14 30 20 31 16 32 19 33 17 34 23 35 30 36 24 37
REMARK SMILES IDX 28 38 25 39 26 40 29 41 27 43 15 45 18 47 34 49 32 51
REMARK H PARENT 42 17 40 19 38 21 36 23 29 42 27 44 15 46 18 48 34 50 32 52
ROOT
ATOM      1  C   UNL     1       1.268   1.099  -0.510  1.00  0.00     0.180 C 
ATOM      2  O   UNL     1      -0.140   1.086  -0.181  1.00  0.00    -0.332 OA
ATOM      3  C   UNL     1      -0.966   1.191  -1.341  1.00  0.00     0.339 C 
ATOM      4  C   UNL     1      -0.806   2.568  -2.043  1.00  0.00     0.214 C 
ATOM      5  C   UNL     1       0.589   3.175  -1.832  1.00  0.00     0.180 C 
ATOM      6  C   UNL     1       1.626   2.059  -1.675  1.00  0.00     0.177 C 
ENDROOT
BRANCH   1   7
ATOM      7  C   UNL     1       2.079   1.412   0.761  1.00  0.00     0.198 C 
BRANCH   7   8
ATOM      8  O   UNL     1       3.483   1.454   0.526  1.00  0.00    -0.347 OA
BRANCH   8   9
ATOM      9  C   UNL     1       4.106   0.177   0.359  1.00  0.00     0.281 C 
ATOM     10  C   UNL     1       5.720  -1.280   1.385  1.00  0.00     0.150 C 
ATOM     11  O   UNL     1       5.072  -0.001   1.388  1.00  0.00    -0.344 OA
ATOM     12  C   UNL     1       5.833  -1.904  -0.018  1.00  0.00     0.174 C 
ATOM     13  C   UNL     1       5.997  -0.802  -1.068  1.00  0.00     0.179 C 
ATOM     14  C   UNL     1       4.779   0.144  -1.038  1.00  0.00     0.202 C 
ATOM     15  C   UNL     1       5.011  -2.208   2.367  1.00  0.00     0.041 C 
BRANCH  12  16
ATOM     16  O   UNL     1       6.929  -2.813  -0.079  1.00  0.00    -0.388 OA
ATOM     17  H   UNL     1       7.021  -3.065  -1.018  1.00  0.00     0.211 HD
ENDBRANCH  12  16
BRANCH  13  18
ATOM     18  O   UNL     1       6.089  -1.412  -2.366  1.00  0.00    -0.387 OA
ATOM     19  H   UNL     1       6.500  -0.745  -2.955  1.00  0.00     0.211 HD
ENDBRANCH  13  18
BRANCH  14  20
ATOM     20  O   UNL     1       3.817  -0.238  -2.051  1.00  0.00    -0.385 OA
ATOM     21  H   UNL     1       4.197  -1.042  -2.472  1.00  0.00     0.211 HD
ENDBRANCH  14  20
ENDBRANCH   8   9
ENDBRANCH   7   8
ENDBRANCH   1   7
BRANCH   6  22
ATOM     22  O   UNL     1       1.638   1.306  -2.904  1.00  0.00    -0.387 OA
ATOM     23  H   UNL     1       2.427   0.716  -2.840  1.00  0.00     0.211 HD
ENDBRANCH   6  22
BRANCH   3  24
ATOM     24  O   UNL     1      -2.357   1.091  -0.967  1.00  0.00    -0.452 OA
BRANCH  24  25
ATOM     25  C   UNL     1      -2.785  -0.066  -0.363  1.00  0.00     0.229 A 
ATOM     26  C   UNL     1      -2.410  -1.320  -0.849  1.00  0.00     0.079 A 
ATOM     27  C   UNL     1      -3.744   0.037   0.670  1.00  0.00     0.402 A 
ATOM     28  C   UNL     1      -2.996  -2.491  -0.352  1.00  0.00     0.125 A 
ATOM     29  O   UNL     1      -4.310  -1.149   1.241  1.00  0.00    -0.202 OA
ATOM     30  C   UNL     1      -2.704  -3.775  -0.844  1.00  0.00     0.136 A 
ATOM     31  C   UNL     1      -3.966  -2.389   0.664  1.00  0.00     0.368 A 
ATOM     32  C   UNL     1      -3.346  -4.909  -0.352  1.00  0.00     0.093 A 
ATOM     33  C   UNL     1      -4.613  -3.521   1.163  1.00  0.00     0.162 A 
ATOM     34  C   UNL     1      -4.301  -4.769   0.648  1.00  0.00     0.128 A 
BRANCH  27  35
ATOM     35  C   UNL     1      -4.275   1.283   1.268  1.00  0.00     0.087 A 
ATOM     36  C   UNL     1      -5.574   1.257   1.820  1.00  0.00     0.068 A 
ATOM     37  C   UNL     1      -3.560   2.495   1.359  1.00  0.00     0.022 A 
ATOM     38  C   UNL     1      -6.122   2.396   2.392  1.00  0.00     0.158 A 
ATOM     39  C   UNL     1      -4.121   3.644   1.940  1.00  0.00     0.051 A 
ATOM     40  C   UNL     1      -5.408   3.584   2.448  1.00  0.00     0.157 A 
BRANCH  38  41
ATOM     41  O   UNL     1      -7.382   2.328   2.911  1.00  0.00    -0.504 OA
ATOM     42  H   UNL     1      -7.557   3.231   3.254  1.00  0.00     0.293 HD
ENDBRANCH  38  41
BRANCH  40  43
ATOM     43  O   UNL     1      -6.019   4.661   3.020  1.00  0.00    -0.504 OA
ATOM     44  H   UNL     1      -5.402   5.415   3.006  1.00  0.00     0.293 HD
ENDBRANCH  40  43
ENDBRANCH  27  35
BRANCH  30  45
ATOM     45  O   UNL     1      -1.761  -3.901  -1.829  1.00  0.00    -0.507 OA
ATOM     46  H   UNL     1      -1.770  -4.812  -2.189  1.00  0.00     0.293 HD
ENDBRANCH  30  45
BRANCH  34  47
ATOM     47  O   UNL     1      -4.902  -5.907   1.088  1.00  0.00    -0.507 OA
ATOM     48  H   UNL     1      -5.561  -5.718   1.781  1.00  0.00     0.293 HD
ENDBRANCH  34  47
ENDBRANCH  24  25
ENDBRANCH   3  24
BRANCH   5  49
ATOM     49  O   UNL     1       0.601   4.024  -0.686  1.00  0.00    -0.387 OA
ATOM     50  H   UNL     1       0.018   4.789  -0.880  1.00  0.00     0.211 HD
ENDBRANCH   5  49
BRANCH   4  51
ATOM     51  O   UNL     1      -1.079   2.417  -3.448  1.00  0.00    -0.384 OA
ATOM     52  H   UNL     1      -0.310   1.945  -3.833  1.00  0.00     0.211 HD
ENDBRANCH   4  51
TORSDOF 16
