REMARK SMILES O=C(c1ccc(F)cc1)C1CCN(CCn2c(=O)[nH]c3ccccc3c2=O)CC1
REMARK SMILES IDX 10 1 11 2 12 3 13 4 28 5 29 6 2 7 1 8 3 9 6 10 5 11 8 12
REMARK SMILES IDX 4 13 9 14 7 15 14 16 15 17 16 18 17 19 26 20 18 21 19 22
REMARK SMILES IDX 25 23 27 24 20 25 24 26 21 27 23 28 22 29
REMARK H PARENT 19 30
ROOT
ATOM      1  C   UNL     1       2.623  -0.183  -0.865  1.00  0.00     0.064 C 
ATOM      2  C   UNL     1       1.466   0.113  -1.830  1.00  0.00     0.027 C 
ATOM      3  C   UNL     1       0.769  -1.178  -2.266  1.00  0.00     0.085 C 
ATOM      4  N   UNL     1       0.310  -2.022  -1.151  1.00  0.00    -0.302 NA
ATOM      5  C   UNL     1       1.413  -2.298  -0.220  1.00  0.00     0.085 C 
ATOM      6  C   UNL     1       2.122  -1.046   0.296  1.00  0.00     0.027 C 
ENDROOT
BRANCH   1   7
ATOM      7  C   UNL     1       3.236   1.110  -0.332  1.00  0.00     0.166 C 
ATOM      8  O   UNL     1       2.579   2.147  -0.245  1.00  0.00    -0.294 OA
BRANCH   7   9
ATOM      9  C   UNL     1       4.665   1.131   0.122  1.00  0.00     0.018 A 
ATOM     10  C   UNL     1       7.317   1.303   0.992  1.00  0.00     0.123 A 
ATOM     11  C   UNL     1       6.521   2.440   1.001  1.00  0.00     0.040 A 
ATOM     12  C   UNL     1       6.812   0.083   0.558  1.00  0.00     0.040 A 
ATOM     13  C   UNL     1       5.196   2.354   0.566  1.00  0.00     0.015 A 
ATOM     14  C   UNL     1       5.486  -0.006   0.122  1.00  0.00     0.015 A 
ATOM     15  F   UNL     1       8.587   1.381   1.409  1.00  0.00    -0.207 F 
ENDBRANCH   7   9
ENDBRANCH   1   7
BRANCH   4  16
ATOM     16  C   UNL     1      -0.871  -1.474  -0.453  1.00  0.00     0.106 C 
BRANCH  16  17
ATOM     17  C   UNL     1      -2.178  -1.622  -1.260  1.00  0.00     0.146 C 
BRANCH  17  18
ATOM     18  N   UNL     1      -3.320  -1.059  -0.542  1.00  0.00    -0.259 N 
ATOM     19  C   UNL     1      -3.990  -1.873   0.356  1.00  0.00     0.328 C 
ATOM     20  C   UNL     1      -3.587   0.298  -0.718  1.00  0.00     0.264 C 
ATOM     21  O   UNL     1      -3.692  -3.044   0.585  1.00  0.00    -0.248 OA
ATOM     22  N   UNL     1      -5.041  -1.314   1.027  1.00  0.00    -0.307 N 
ATOM     23  C   UNL     1      -4.737   0.850   0.023  1.00  0.00     0.064 A 
ATOM     24  O   UNL     1      -2.921   1.041  -1.435  1.00  0.00    -0.268 OA
ATOM     25  C   UNL     1      -5.438   0.011   0.882  1.00  0.00     0.055 A 
ATOM     26  C   UNL     1      -5.118   2.188  -0.123  1.00  0.00     0.016 A 
ATOM     27  C   UNL     1      -6.528   0.497   1.604  1.00  0.00     0.027 A 
ATOM     28  C   UNL     1      -6.209   2.677   0.597  1.00  0.00     0.001 A 
ATOM     29  C   UNL     1      -6.913   1.832   1.458  1.00  0.00     0.002 A 
ATOM     30  H   UNL     1      -5.524  -1.932   1.666  1.00  0.00     0.171 HD
ENDBRANCH  17  18
ENDBRANCH  16  17
ENDBRANCH   4  16
TORSDOF 5
