REMARK SMILES CN1CCC(=C2c3ccccc3CC(=O)c3sccc32)CC1
REMARK SMILES IDX 1 1 2 2 3 3 4 4 5 5 21 6 22 7 6 8 20 9 16 10 19 11 17 12
REMARK SMILES IDX 18 13 14 14 15 15 7 17 12 18 8 19 11 20 9 21 10 22 13 23
REMARK H PARENT
REMARK Flexibility Score:   11.900
ROOT
ATOM      1  C   UNL     1       4.868   0.510  -0.298  1.00  0.00     0.105 C 
ATOM      2  N   UNL     1       3.490   0.903  -0.579  1.00  0.00    -0.306 NA
ATOM      3  C   UNL     1       2.774  -0.113  -1.367  1.00  0.00     0.088 C 
ATOM      4  C   UNL     1       1.771  -0.961  -0.565  1.00  0.00     0.047 C 
ATOM      5  C   UNL     1       0.715  -0.096   0.118  1.00  0.00    -0.059 C 
ATOM      6  C   UNL     1       1.258   1.277   0.502  1.00  0.00     0.047 C 
ATOM      7  C   UNL     1       2.787   1.265   0.663  1.00  0.00     0.088 C 
ATOM      8  C   UNL     1      -0.577  -0.486   0.290  1.00  0.00    -0.010 C 
ENDROOT
BRANCH   8   9
ATOM      9  C   UNL     1      -1.078  -1.769  -0.153  1.00  0.00     0.004 A 
ATOM     10  C   UNL     1      -2.148  -1.900  -1.028  1.00  0.00     0.078 A 
ATOM     11  C   UNL     1      -0.587  -3.034   0.299  1.00  0.00     0.021 A 
ATOM     12  S   UNL     1      -2.500  -3.557  -1.322  1.00  0.00    -0.140 S 
ATOM     13  C   UNL     1      -1.266  -4.087  -0.270  1.00  0.00     0.066 A 
BRANCH  10  14
ATOM     14  C   UNL     1      -2.962  -0.877  -1.692  1.00  0.00     0.177 CG0
ATOM     15  O   UNL     1      -3.899  -1.145  -2.451  1.00  0.00    -0.293 OA
ATOM     16  G   UNL     1      -2.597   0.587  -1.478  1.00  0.00     0.000 G0
ENDBRANCH  10  14
ENDBRANCH   8   9
BRANCH   8  17
ATOM     17  C   UNL     1      -1.567   0.485   0.833  1.00  0.00    -0.014 A 
ATOM     18  C   UNL     1      -2.557   1.002  -0.025  1.00  0.00    -0.032 A 
ATOM     19  C   UNL     1      -1.582   0.818   2.194  1.00  0.00     0.009 A 
ATOM     20  C   UNL     1      -3.521   1.882   0.489  1.00  0.00     0.005 A 
ATOM     21  C   UNL     1      -2.544   1.696   2.693  1.00  0.00     0.001 A 
ATOM     22  C   UNL     1      -3.508   2.230   1.841  1.00  0.00     0.000 A 
BRANCH  18  23
ATOM     23  C   UNL     1      -2.597   0.587  -1.478  1.00  0.00     0.118 CG0
ATOM     24  G   UNL     1      -2.962  -0.877  -1.692  1.00  0.00     0.000 G0
ENDBRANCH  18  23
ENDBRANCH   8  17
TORSDOF 0
