REMARK SMILES O=C(c1ccccc1)c1ccc2n1CCC2C(=O)O
REMARK SMILES IDX 16 1 15 2 14 3 13 4 12 5 11 6 10 7 9 8 17 9 18 10 19 11 2 13
REMARK SMILES IDX 1 14 3 15 4 16 8 17 5 18 7 19 6 20
REMARK H PARENT 19 12
ROOT
ATOM      1  C   UNL     1      -3.428  -0.842   0.235  1.00  0.00     0.147 C 
ATOM      2  C   UNL     1      -3.321  -0.495  -1.277  1.00  0.00     0.043 C 
ATOM      3  C   UNL     1      -2.024   0.322  -1.429  1.00  0.00     0.124 C 
ATOM      4  N   UNL     1      -1.258  -0.101  -0.268  1.00  0.00    -0.341 N 
ATOM      5  C   UNL     1      -2.010  -0.750   0.666  1.00  0.00     0.032 A 
ATOM      6  C   UNL     1      -1.193  -1.098   1.704  1.00  0.00     0.025 A 
ATOM      7  C   UNL     1       0.106  -0.619   1.352  1.00  0.00     0.032 A 
ATOM      8  C   UNL     1       0.048  -0.010   0.096  1.00  0.00     0.090 A 
ENDROOT
BRANCH   1   9
ATOM      9  C   UNL     1      -4.283   0.121   1.037  1.00  0.00     0.312 C 
ATOM     10  O   UNL     1      -4.794  -0.114   2.122  1.00  0.00    -0.252 OA
BRANCH   9  11
ATOM     11  O   UNL     1      -4.428   1.341   0.483  1.00  0.00    -0.481 OA
ATOM     12  H   UNL     1      -4.937   1.841   1.156  1.00  0.00     0.296 HD
ENDBRANCH   9  11
ENDBRANCH   1   9
BRANCH   8  13
ATOM     13  C   UNL     1       1.068   0.646  -0.702  1.00  0.00     0.209 C 
ATOM     14  O   UNL     1       0.797   1.398  -1.638  1.00  0.00    -0.287 OA
BRANCH  13  15
ATOM     15  C   UNL     1       2.508   0.427  -0.398  1.00  0.00     0.024 A 
ATOM     16  C   UNL     1       3.011  -0.848  -0.116  1.00  0.00     0.012 A 
ATOM     17  C   UNL     1       3.378   1.523  -0.453  1.00  0.00     0.012 A 
ATOM     18  C   UNL     1       4.373  -1.017   0.145  1.00  0.00     0.001 A 
ATOM     19  C   UNL     1       4.738   1.350  -0.191  1.00  0.00     0.001 A 
ATOM     20  C   UNL     1       5.232   0.081   0.112  1.00  0.00     0.000 A 
ENDBRANCH  13  15
ENDBRANCH   8  13
TORSDOF 4
