REMARK SMILES CC(=O)N1CCN(c2ccc(OCC3COC(Cn4ccnc4)(c4ccc(Cl)cc4Cl)O3)cc2)CC1
REMARK SMILES IDX 12 1 11 2 8 3 9 4 34 5 10 6 33 7 7 8 2 9 3 10 4 11 5 12
REMARK SMILES IDX 36 13 6 14 35 15 1 16 13 17 14 18 15 19 32 20 16 21 17 22
REMARK SMILES IDX 18 23 19 24 20 25 23 26 21 27 22 28 24 29 30 30 25 31 29 32
REMARK SMILES IDX 26 33 27 34 31 35 28 36
REMARK H PARENT
ROOT
ATOM      1  O   UNL     1      -0.691   1.279   1.344  1.00  0.00    -0.491 OA
ENDROOT
BRANCH   1   2
ATOM      2  C   UNL     1       0.561   0.848   1.009  1.00  0.00     0.119 A 
ATOM      3  C   UNL     1       3.275   0.210   0.392  1.00  0.00     0.037 A 
ATOM      4  C   UNL     1       2.229  -0.703   0.183  1.00  0.00     0.030 A 
ATOM      5  C   UNL     1       2.909   1.457   0.921  1.00  0.00     0.030 A 
ATOM      6  C   UNL     1       0.892  -0.396   0.487  1.00  0.00     0.048 A 
ATOM      7  C   UNL     1       1.578   1.773   1.224  1.00  0.00     0.048 A 
BRANCH   3   8
ATOM      8  N   UNL     1       4.592  -0.093   0.086  1.00  0.00    -0.368 N 
ATOM      9  C   UNL     1       8.742  -0.907  -0.758  1.00  0.00     0.219 C 
ATOM     10  O   UNL     1       9.612  -0.722   0.093  1.00  0.00    -0.275 OA
ATOM     11  N   UNL     1       7.394  -0.742  -0.495  1.00  0.00    -0.339 N 
ATOM     12  C   UNL     1       6.320  -1.007  -1.457  1.00  0.00     0.141 C 
ATOM     13  C   UNL     1       6.976  -0.261   0.823  1.00  0.00     0.141 C 
ATOM     14  C   UNL     1       4.943  -1.216  -0.797  1.00  0.00     0.138 C 
ATOM     15  C   UNL     1       5.702   0.601   0.769  1.00  0.00     0.138 C 
ATOM     16  C   UNL     1       9.119  -1.340  -2.152  1.00  0.00     0.114 C 
ENDBRANCH   3   8
ENDBRANCH   1   2
BRANCH   1  17
ATOM     17  C   UNL     1      -1.768   0.369   1.129  1.00  0.00     0.264 C 
BRANCH  17  18
ATOM     18  C   UNL     1      -3.080   1.048   1.539  1.00  0.00     0.185 C 
ATOM     19  C   UNL     1      -3.485   2.143   0.585  1.00  0.00     0.200 C 
ATOM     20  O   UNL     1      -4.173   0.121   1.478  1.00  0.00    -0.335 OA
ATOM     21  O   UNL     1      -4.212   1.462  -0.437  1.00  0.00    -0.342 OA
ATOM     22  C   UNL     1      -4.784   0.299   0.177  1.00  0.00     0.215 C 
BRANCH  22  23
ATOM     23  C   UNL     1      -6.316   0.429   0.358  1.00  0.00     0.194 C 
BRANCH  23  24
ATOM     24  N   UNL     1      -6.722   1.553   1.182  1.00  0.00    -0.332 N 
ATOM     25  C   UNL     1      -7.187   2.759   0.736  1.00  0.00     0.107 A 
ATOM     26  C   UNL     1      -6.755   1.576   2.547  1.00  0.00     0.199 A 
ATOM     27  C   UNL     1      -7.461   3.476   1.877  1.00  0.00     0.130 A 
ATOM     28  N   UNL     1      -7.185   2.734   2.996  1.00  0.00    -0.245 NA
ENDBRANCH  23  24
ENDBRANCH  22  23
BRANCH  22  29
ATOM     29  C   UNL     1      -4.486  -0.936  -0.690  1.00  0.00     0.032 A 
ATOM     30  C   UNL     1      -4.646  -0.957  -2.092  1.00  0.00     0.051 A 
ATOM     31  C   UNL     1      -4.058  -2.134  -0.071  1.00  0.00     0.012 A 
ATOM     32  C   UNL     1      -4.353  -2.109  -2.835  1.00  0.00     0.041 A 
ATOM     33  C   UNL     1      -3.768  -3.281  -0.814  1.00  0.00     0.021 A 
ATOM     34  C   UNL     1      -3.911  -3.260  -2.195  1.00  0.00     0.042 A 
ATOM     35  Cl  UNL     1      -5.242   0.391  -2.997  1.00  0.00    -0.084 Cl
ATOM     36  Cl  UNL     1      -3.551  -4.669  -3.112  1.00  0.00    -0.084 Cl
ENDBRANCH  22  29
ENDBRANCH  17  18
ENDBRANCH   1  17
TORSDOF 7
