REMARK SMILES c1coc(CNc2[nH]cnc3ncnc2-3)c1
REMARK SMILES IDX 6 1 5 3 4 4 16 5 3 6 1 7 2 8 7 9 15 10 8 11 14 12 11 13 9 14
REMARK SMILES IDX 13 15 12 16 10 17
REMARK H PARENT 6 2 8 18
ROOT
ATOM      1  N   UNL     1       0.163   0.474  -0.434  1.00  0.00    -0.362 N 
ATOM      2  H   UNL     1       0.669   1.346  -0.303  1.00  0.00     0.162 HD
ENDROOT
BRANCH   1   3
ATOM      3  C   UNL     1       0.814  -0.620   0.283  1.00  0.00     0.190 C 
BRANCH   3   4
ATOM      4  C   UNL     1       2.302  -0.505   0.289  1.00  0.00     0.122 A 
ATOM      5  C   UNL     1       3.322  -1.337  -0.125  1.00  0.00     0.047 A 
ATOM      6  O   UNL     1       2.823   0.654   0.794  1.00  0.00    -0.467 OA
ATOM      7  C   UNL     1       4.531  -0.653   0.147  1.00  0.00     0.042 A 
ATOM      8  C   UNL     1       4.174   0.552   0.706  1.00  0.00     0.195 A 
ENDBRANCH   3   4
ENDBRANCH   1   3
BRANCH   1   9
ATOM      9  C   UNL     1      -1.206   0.652  -0.521  1.00  0.00     0.135 C 
ATOM     10  C   UNL     1      -2.139  -0.245  -0.144  1.00  0.00     0.150 C 
ATOM     11  N   UNL     1      -1.693   1.838  -1.038  1.00  0.00    -0.331 N 
ATOM     12  N   UNL     1      -2.087  -1.496   0.412  1.00  0.00    -0.229 NA
ATOM     13  C   UNL     1      -3.558   0.092  -0.310  1.00  0.00     0.184 C 
ATOM     14  C   UNL     1      -3.033   2.070  -1.192  1.00  0.00     0.200 C 
ATOM     15  C   UNL     1      -3.348  -1.810   0.539  1.00  0.00     0.225 C 
ATOM     16  N   UNL     1      -4.294  -0.886   0.118  1.00  0.00    -0.215 NA
ATOM     17  N   UNL     1      -3.989   1.268  -0.850  1.00  0.00    -0.217 NA
ATOM     18  H   UNL     1      -1.010   2.456  -1.454  1.00  0.00     0.169 HD
ENDBRANCH   1   9
TORSDOF 3
