REMARK SMILES CC(O)C(=O)O
REMARK SMILES IDX 4 1 5 2 2 3 1 4 3 5 6 7
REMARK H PARENT 3 6 6 8
ROOT
ATOM      1  C   UNL     1       1.155  -0.044  -0.001  1.00  0.00     0.332 C 
ATOM      2  O   UNL     1       1.856  -0.796   0.660  1.00  0.00    -0.249 OA
ENDROOT
BRANCH   1   3
ATOM      3  C   UNL     1      -0.258  -0.354  -0.485  1.00  0.00     0.220 C 
ATOM      4  C   UNL     1      -1.273   0.519   0.231  1.00  0.00     0.051 C 
BRANCH   3   5
ATOM      5  O   UNL     1      -0.596  -1.722  -0.253  1.00  0.00    -0.382 OA
ATOM      6  H   UNL     1      -0.076  -2.012   0.522  1.00  0.00     0.211 HD
ENDBRANCH   3   5
ENDBRANCH   1   3
BRANCH   1   7
ATOM      7  O   UNL     1       1.599   1.173  -0.367  1.00  0.00    -0.479 OA
ATOM      8  H   UNL     1       2.508   1.221  -0.001  1.00  0.00     0.296 HD
ENDBRANCH   1   7
TORSDOF 3
