REMARK SMILES CC(=O)O[C@H]1C[C@H](O[C@H]2[C@@H](O)C[C@H](O[C@H]3[C@@H](O)C[C@H](O[C@H]4CC[C@@]5(C)[C@H](CC[C@@H]6[C@@H]5C[C@@H](O)[C@]5(C)[C@@H](C7=CC(=O)OC7)CC[C@]65O)C4)O[C@@H]3C)O[C@@H]2C)O[C@H](C)[C@H]1O[C@H]1O[C@H](CO)[C@@H](O)[C@H](O)[C@H]1O
REMARK SMILES IDX 13 1 12 2 10 3 9 4 52 5 53 6 51 7 14 8 15 9 49 10 48 11
REMARK SMILES IDX 19 12 16 13 18 14 50 15 20 16 21 17 22 18 47 19 23 20 26 21
REMARK SMILES IDX 24 22 27 23 30 24 28 25 29 26 31 27 45 28 32 29 44 30 34 31
REMARK SMILES IDX 43 32 36 33 25 34 35 35 46 36 33 38 37 40 38 41 42 42 39 43
REMARK SMILES IDX 41 44 40 45 17 46 11 48 8 50 7 51 6 52 54 53 5 54 55 55
REMARK SMILES IDX 57 56 56 57 4 58 2 59 3 60 1 61 58 62 59 63 60 64 68 65
REMARK SMILES IDX 61 66 66 67 64 68 69 69 62 71 63 72 67 74 65 76
REMARK H PARENT 46 37 33 39 17 47 11 49 69 70 63 73 67 75 65 77
ROOT
ATOM      1  C   UNL     1      -2.609  -0.529  -0.134  1.00  0.00     0.253 C 
ATOM      2  C   UNL     1      -3.513  -0.976  -1.286  1.00  0.00     0.096 C 
ATOM      3  C   UNL     1      -4.551  -1.993  -0.815  1.00  0.00     0.151 C 
ATOM      4  C   UNL     1      -5.045  -1.662   0.603  1.00  0.00     0.179 C 
ATOM      5  C   UNL     1      -3.840  -1.645   1.568  1.00  0.00     0.150 C 
ATOM      6  C   UNL     1      -3.765  -2.922   2.391  1.00  0.00     0.041 C 
ATOM      7  O   UNL     1      -2.586  -1.542   0.871  1.00  0.00    -0.347 OA
ENDROOT
BRANCH   1   8
ATOM      8  O   UNL     1      -1.293  -0.326  -0.647  1.00  0.00    -0.344 OA
BRANCH   8   9
ATOM      9  C   UNL     1      -0.319  -0.002   0.370  1.00  0.00     0.179 C 
ATOM     10  C   UNL     1       0.424   1.279  -0.060  1.00  0.00     0.150 C 
ATOM     11  O   UNL     1       1.318   1.077  -1.163  1.00  0.00    -0.347 OA
ATOM     12  C   UNL     1       2.218  -0.025  -1.068  1.00  0.00     0.253 C 
ATOM     13  C   UNL     1       0.665  -1.181   0.497  1.00  0.00     0.151 C 
ATOM     14  C   UNL     1       1.484  -1.329  -0.780  1.00  0.00     0.096 C 
ATOM     15  C   UNL     1       1.129   1.970   1.105  1.00  0.00     0.041 C 
BRANCH  12  16
ATOM     16  O   UNL     1       3.205   0.208  -0.065  1.00  0.00    -0.349 OA
BRANCH  16  17
ATOM     17  C   UNL     1       4.498  -0.323  -0.380  1.00  0.00     0.121 C 
ATOM     18  C   UNL     1       5.379   0.807  -0.923  1.00  0.00     0.033 C 
ATOM     19  C   UNL     1       5.056  -0.939   0.908  1.00  0.00     0.036 C 
ATOM     20  C   UNL     1       6.257   1.418   0.170  1.00  0.00     0.010 C 
ATOM     21  C   UNL     1       6.590  -1.027   0.929  1.00  0.00    -0.002 C 
ATOM     22  C   UNL     1       7.252   0.394   0.809  1.00  0.00    -0.026 C 
ATOM     23  C   UNL     1       7.103  -2.018  -0.121  1.00  0.00     0.005 C 
ATOM     24  C   UNL     1       8.580   0.322  -0.049  1.00  0.00     0.004 C 
ATOM     25  C   UNL     1       8.610  -2.233  -0.006  1.00  0.00     0.007 C 
ATOM     26  C   UNL     1       9.416  -0.942   0.282  1.00  0.00     0.025 C 
ATOM     27  C   UNL     1       9.428   1.617  -0.050  1.00  0.00     0.037 C 
ATOM     28  C   UNL     1      10.813  -0.947  -0.405  1.00  0.00     0.076 C 
ATOM     29  C   UNL     1      10.826   1.470   0.553  1.00  0.00     0.124 C 
ATOM     30  C   UNL     1      10.722  -0.967  -1.951  1.00  0.00     0.037 C 
ATOM     31  C   UNL     1      11.699   0.296  -0.022  1.00  0.00     0.029 C 
ATOM     32  C   UNL     1      11.340   0.323  -2.459  1.00  0.00     0.012 C 
ATOM     33  C   UNL     1      12.354   0.735  -1.388  1.00  0.00     0.030 C 
ATOM     34  C   UNL     1       7.535   0.881   2.254  1.00  0.00     0.012 C 
ATOM     35  C   UNL     1      12.786  -0.034   1.032  1.00  0.00     0.018 C 
BRANCH  28  36
ATOM     36  O   UNL     1      11.507  -2.142  -0.014  1.00  0.00    -0.389 OA
ATOM     37  H   UNL     1      11.007  -2.915  -0.329  1.00  0.00     0.211 HD
ENDBRANCH  28  36
BRANCH  29  38
ATOM     38  O   UNL     1      10.624   1.346   1.965  1.00  0.00    -0.392 OA
ATOM     39  H   UNL     1      11.444   1.610   2.417  1.00  0.00     0.210 HD
ENDBRANCH  29  38
BRANCH  33  40
ATOM     40  C   UNL     1      13.720   0.193  -1.745  1.00  0.00    -0.022 C 
ATOM     41  C   UNL     1      14.131  -1.068  -1.879  1.00  0.00     0.096 C 
ATOM     42  C   UNL     1      14.840   1.119  -2.046  1.00  0.00     0.265 C 
ATOM     43  C   UNL     1      15.537  -1.028  -2.275  1.00  0.00     0.331 C 
ATOM     44  O   UNL     1      15.937   0.268  -2.369  1.00  0.00    -0.458 OA
ATOM     45  O   UNL     1      16.228  -2.005  -2.494  1.00  0.00    -0.247 OA
ENDBRANCH  33  40
ENDBRANCH  16  17
ENDBRANCH  12  16
BRANCH  13  46
ATOM     46  O   UNL     1       0.006  -2.422   0.762  1.00  0.00    -0.390 OA
ATOM     47  H   UNL     1      -0.957  -2.259   0.688  1.00  0.00     0.211 HD
ENDBRANCH  13  46
ENDBRANCH   8   9
ENDBRANCH   1   8
BRANCH   3  48
ATOM     48  O   UNL     1      -5.617  -2.061  -1.762  1.00  0.00    -0.390 OA
ATOM     49  H   UNL     1      -6.349  -1.501  -1.430  1.00  0.00     0.211 HD
ENDBRANCH   3  48
BRANCH   4  50
ATOM     50  O   UNL     1      -5.599  -0.326   0.586  1.00  0.00    -0.344 OA
BRANCH  50  51
ATOM     51  C   UNL     1      -7.011  -0.303   0.789  1.00  0.00     0.254 C 
ATOM     52  C   UNL     1      -7.431   1.157   0.900  1.00  0.00     0.110 C 
ATOM     53  O   UNL     1      -7.665  -0.897  -0.329  1.00  0.00    -0.347 OA
ATOM     54  C   UNL     1      -8.940   1.267   1.058  1.00  0.00     0.213 C 
ATOM     55  C   UNL     1      -9.088  -0.948  -0.150  1.00  0.00     0.151 C 
ATOM     56  C   UNL     1      -9.684   0.471  -0.038  1.00  0.00     0.191 C 
ATOM     57  C   UNL     1      -9.665  -1.696  -1.349  1.00  0.00     0.042 C 
BRANCH  54  58
ATOM     58  O   UNL     1      -9.290   0.720   2.353  1.00  0.00    -0.459 OA
BRANCH  58  59
ATOM     59  C   UNL     1     -10.108   1.485   3.128  1.00  0.00     0.302 C 
ATOM     60  O   UNL     1     -10.446   2.634   2.882  1.00  0.00    -0.253 OA
ATOM     61  C   UNL     1     -10.535   0.715   4.339  1.00  0.00     0.139 C 
ENDBRANCH  58  59
ENDBRANCH  54  58
BRANCH  56  62
ATOM     62  O   UNL     1     -11.078   0.360   0.278  1.00  0.00    -0.340 OA
BRANCH  62  63
ATOM     63  C   UNL     1     -11.842   1.510  -0.086  1.00  0.00     0.282 C 
ATOM     64  O   UNL     1     -12.287   1.377  -1.441  1.00  0.00    -0.341 OA
ATOM     65  C   UNL     1     -13.006   1.763   0.913  1.00  0.00     0.202 C 
ATOM     66  C   UNL     1     -13.422   0.506  -1.573  1.00  0.00     0.178 C 
ATOM     67  C   UNL     1     -14.264   2.191   0.145  1.00  0.00     0.179 C 
ATOM     68  C   UNL     1     -14.663   1.081  -0.843  1.00  0.00     0.177 C 
BRANCH  65  69
ATOM     69  O   UNL     1     -13.279   0.625   1.750  1.00  0.00    -0.385 OA
ATOM     70  H   UNL     1     -13.810  -0.014   1.230  1.00  0.00     0.211 HD
ENDBRANCH  65  69
BRANCH  66  71
ATOM     71  C   UNL     1     -13.708   0.320  -3.070  1.00  0.00     0.191 C 
BRANCH  71  72
ATOM     72  O   UNL     1     -14.078   1.565  -3.664  1.00  0.00    -0.394 OA
ATOM     73  H   UNL     1     -14.213   1.400  -4.614  1.00  0.00     0.210 HD
ENDBRANCH  71  72
ENDBRANCH  66  71
BRANCH  67  74
ATOM     74  O   UNL     1     -14.061   3.431  -0.537  1.00  0.00    -0.387 OA
ATOM     75  H   UNL     1     -13.617   3.236  -1.389  1.00  0.00     0.211 HD
ENDBRANCH  67  74
BRANCH  68  76
ATOM     76  O   UNL     1     -15.294   0.004  -0.127  1.00  0.00    -0.387 OA
ATOM     77  H   UNL     1     -16.170   0.334   0.153  1.00  0.00     0.211 HD
ENDBRANCH  68  76
ENDBRANCH  62  63
ENDBRANCH  56  62
ENDBRANCH  50  51
ENDBRANCH   4  50
TORSDOF 20
