REMARK SMILES Nc1nc(=O)c2c([nH]1)NCC(CNc1ccc(C(=O)N[C@@H](CCC(=O)O)C(=O)O)cc1)N2C=O
REMARK SMILES IDX 18 1 19 2 20 3 17 5 14 6 15 7 31 8 16 9 30 10 13 11 12 13
REMARK SMILES IDX 11 14 1 15 2 16 3 17 8 18 4 19 7 20 5 21 6 22 9 23 32 24
REMARK SMILES IDX 10 25 33 30 34 31 21 32 22 33 23 34 24 35 25 36 26 37 27 39
REMARK SMILES IDX 28 40 29 41
REMARK H PARENT 20 4 13 12 1 26 1 27 8 28 9 29 26 38 29 42
ROOT
ATOM      1  C   UNL     1       3.829   0.456   0.602  1.00  0.00     0.251 C 
ATOM      2  O   UNL     1       4.622   0.951   1.394  1.00  0.00    -0.269 OA
ATOM      3  N   UNL     1       4.215  -0.241  -0.527  1.00  0.00    -0.339 N 
ATOM      4  H   UNL     1       3.553  -0.926  -0.868  1.00  0.00     0.164 HD
ENDROOT
BRANCH   1   5
ATOM      5  C   UNL     1       2.364   0.539   0.859  1.00  0.00     0.039 A 
ATOM      6  C   UNL     1      -0.407   0.739   1.430  1.00  0.00     0.034 A 
ATOM      7  C   UNL     1       0.557   0.847   2.444  1.00  0.00     0.026 A 
ATOM      8  C   UNL     1       0.048   0.495   0.131  1.00  0.00     0.026 A 
ATOM      9  C   UNL     1       1.926   0.764   2.165  1.00  0.00     0.016 A 
ATOM     10  C   UNL     1       1.417   0.413  -0.161  1.00  0.00     0.016 A 
BRANCH   6  11
ATOM     11  N   UNL     1      -1.753   0.762   1.802  1.00  0.00    -0.383 N 
ATOM     12  H   UNL     1      -1.904   1.394   2.588  1.00  0.00     0.160 HD
BRANCH  11  13
ATOM     13  C   UNL     1      -2.827   0.848   0.806  1.00  0.00     0.140 C 
BRANCH  13  14
ATOM     14  C   UNL     1      -3.288  -0.548   0.317  1.00  0.00     0.129 C 
ATOM     15  N   UNL     1      -9.605  -0.719   0.318  1.00  0.00    -0.369 N 
ATOM     16  C   UNL     1      -8.321  -0.473  -0.039  1.00  0.00     0.202 C 
ATOM     17  N   UNL     1      -8.003  -0.206  -1.257  1.00  0.00    -0.173 NA
ATOM     18  N   UNL     1      -7.440  -0.564   0.984  1.00  0.00    -0.311 N 
ATOM     19  C   UNL     1      -6.679   0.093  -1.514  1.00  0.00     0.300 C 
ATOM     20  C   UNL     1      -6.092  -0.619   0.746  1.00  0.00     0.136 C 
ATOM     21  O   UNL     1      -6.352   0.717  -2.519  1.00  0.00    -0.265 OA
ATOM     22  C   UNL     1      -5.627  -0.354  -0.504  1.00  0.00     0.153 C 
ATOM     23  N   UNL     1      -5.234  -0.978   1.774  1.00  0.00    -0.367 N 
ATOM     24  N   UNL     1      -4.254  -0.421  -0.808  1.00  0.00    -0.300 N 
ATOM     25  C   UNL     1      -3.867  -1.398   1.464  1.00  0.00     0.141 C 
ATOM     26  H   UNL     1     -10.227  -0.538  -0.467  1.00  0.00     0.159 HD
ATOM     27  H   UNL     1      -9.914  -0.194   1.127  1.00  0.00     0.159 HD
ATOM     28  H   UNL     1      -7.754  -0.996   1.840  1.00  0.00     0.171 HD
ATOM     29  H   UNL     1      -5.673  -1.507   2.520  1.00  0.00     0.162 HD
BRANCH  24  30
ATOM     30  C   UNL     1      -3.722  -0.309  -2.084  1.00  0.00     0.345 C 
ATOM     31  O   UNL     1      -2.521  -0.270  -2.338  1.00  0.00    -0.278 OA
ENDBRANCH  24  30
ENDBRANCH  13  14
ENDBRANCH  11  13
ENDBRANCH   6  11
ENDBRANCH   1   5
BRANCH   3  32
ATOM     32  C   UNL     1       5.627  -0.539  -0.799  1.00  0.00     0.192 C 
BRANCH  32  33
ATOM     33  C   UNL     1       6.516   0.713  -0.839  1.00  0.00     0.049 C 
BRANCH  33  34
ATOM     34  C   UNL     1       7.742   0.523  -1.737  1.00  0.00     0.125 C 
BRANCH  34  35
ATOM     35  C   UNL     1       8.569   1.777  -1.824  1.00  0.00     0.303 C 
ATOM     36  O   UNL     1       8.362   2.849  -1.283  1.00  0.00    -0.252 OA
BRANCH  35  37
ATOM     37  O   UNL     1       9.642   1.612  -2.624  1.00  0.00    -0.481 OA
ATOM     38  H   UNL     1      10.093   2.482  -2.592  1.00  0.00     0.296 HD
ENDBRANCH  35  37
ENDBRANCH  34  35
ENDBRANCH  33  34
ENDBRANCH  32  33
BRANCH  32  39
ATOM     39  C   UNL     1       6.173  -1.626   0.143  1.00  0.00     0.326 C 
ATOM     40  O   UNL     1       7.346  -1.929   0.297  1.00  0.00    -0.250 OA
BRANCH  39  41
ATOM     41  O   UNL     1       5.211  -2.361   0.746  1.00  0.00    -0.480 OA
ATOM     42  H   UNL     1       5.716  -2.980   1.315  1.00  0.00     0.296 HD
ENDBRANCH  39  41
ENDBRANCH  32  39
ENDBRANCH   3  32
TORSDOF 12
