REMARK SMILES CC[C@@H](C(N)=O)N1CCCC1=O
REMARK SMILES IDX 3 1 2 2 1 3 7 4 8 5 11 6 9 7 10 8 12 9 4 10 5 11 6 12
REMARK H PARENT 5 13 5 14
ROOT
ATOM      1  C   UNL     1       0.855   0.309   0.408  1.00  0.00     0.173 C 
ENDROOT
BRANCH   1   2
ATOM      2  C   UNL     1       1.874  -0.127  -0.653  1.00  0.00     0.032 C 
ATOM      3  C   UNL     1       2.137  -1.626  -0.626  1.00  0.00     0.006 C 
ENDBRANCH   1   2
BRANCH   1   4
ATOM      4  N   UNL     1      -0.488  -0.224   0.190  1.00  0.00    -0.331 N 
ATOM      5  C   UNL     1      -1.178  -0.178  -1.079  1.00  0.00     0.121 C 
ATOM      6  C   UNL     1      -1.337  -0.554   1.236  1.00  0.00     0.223 C 
ATOM      7  C   UNL     1      -2.645  -0.164  -0.692  1.00  0.00     0.031 C 
ATOM      8  C   UNL     1      -2.682  -0.888   0.647  1.00  0.00     0.102 C 
ATOM      9  O   UNL     1      -1.043  -0.603   2.419  1.00  0.00    -0.275 OA
ENDBRANCH   1   4
BRANCH   1  10
ATOM     10  C   UNL     1       0.806   1.851   0.495  1.00  0.00     0.240 C 
ATOM     11  N   UNL     1       1.839   2.433   1.182  1.00  0.00    -0.368 N 
ATOM     12  O   UNL     1      -0.039   2.558  -0.048  1.00  0.00    -0.273 OA
ATOM     13  H   UNL     1       2.310   1.917   1.915  1.00  0.00     0.159 HD
ATOM     14  H   UNL     1       1.743   3.431   1.328  1.00  0.00     0.159 HD
ENDBRANCH   1  10
TORSDOF 3
