REMARK SMILES O=C(O)COCCN1CCN([C@H](c2ccccc2)c2ccc(Cl)cc2)CC1
REMARK SMILES IDX 6 1 5 2 4 3 2 4 1 5 3 6 7 8 8 9 9 10 27 11 10 12 26 13 11 14
REMARK SMILES IDX 12 15 13 16 14 17 18 18 15 19 17 20 16 21 19 22 20 23 25 24
REMARK SMILES IDX 21 25 24 26 22 27 23 28
REMARK H PARENT 3 7
ROOT
ATOM      1  C   UNL     1       4.074  -1.668  -0.652  1.00  0.00     0.176 C 
ENDROOT
BRANCH   1   2
ATOM      2  O   UNL     1       5.348  -1.498  -0.019  1.00  0.00    -0.368 OA
BRANCH   2   3
ATOM      3  C   UNL     1       5.784  -0.147   0.049  1.00  0.00     0.282 C 
BRANCH   3   4
ATOM      4  C   UNL     1       6.298   0.453  -1.257  1.00  0.00     0.329 C 
ATOM      5  O   UNL     1       6.313  -0.062  -2.362  1.00  0.00    -0.250 OA
BRANCH   4   6
ATOM      6  O   UNL     1       6.758   1.712  -1.091  1.00  0.00    -0.480 OA
ATOM      7  H   UNL     1       7.063   1.970  -1.987  1.00  0.00     0.296 HD
ENDBRANCH   4   6
ENDBRANCH   3   4
ENDBRANCH   2   3
ENDBRANCH   1   2
BRANCH   1   8
ATOM      8  C   UNL     1       2.928  -1.484   0.363  1.00  0.00     0.113 C 
BRANCH   8   9
ATOM      9  N   UNL     1       1.594  -1.809  -0.177  1.00  0.00    -0.299 NA
ATOM     10  C   UNL     1       0.601  -1.930   0.913  1.00  0.00     0.100 C 
ATOM     11  C   UNL     1       1.113  -0.816  -1.160  1.00  0.00     0.100 C 
ATOM     12  C   UNL     1       0.125  -0.582   1.509  1.00  0.00     0.101 C 
ATOM     13  C   UNL     1       0.628   0.523  -0.550  1.00  0.00     0.101 C 
ATOM     14  N   UNL     1      -0.395   0.396   0.519  1.00  0.00    -0.290 NA
BRANCH  14  15
ATOM     15  C   UNL     1      -1.732   0.000  -0.021  1.00  0.00     0.117 C 
BRANCH  15  16
ATOM     16  C   UNL     1      -2.267   0.957  -1.097  1.00  0.00    -0.026 A 
ATOM     17  C   UNL     1      -2.252   2.352  -0.921  1.00  0.00     0.006 A 
ATOM     18  C   UNL     1      -2.814   0.440  -2.284  1.00  0.00     0.006 A 
ATOM     19  C   UNL     1      -2.757   3.202  -1.906  1.00  0.00     0.000 A 
ATOM     20  C   UNL     1      -3.319   1.292  -3.268  1.00  0.00     0.000 A 
ATOM     21  C   UNL     1      -3.290   2.672  -3.078  1.00  0.00     0.000 A 
ENDBRANCH  15  16
BRANCH  15  22
ATOM     22  C   UNL     1      -2.802  -0.173   1.070  1.00  0.00    -0.026 A 
ATOM     23  C   UNL     1      -3.660  -1.287   1.038  1.00  0.00     0.007 A 
ATOM     24  C   UNL     1      -2.972   0.776   2.096  1.00  0.00     0.007 A 
ATOM     25  C   UNL     1      -4.650  -1.453   2.010  1.00  0.00     0.021 A 
ATOM     26  C   UNL     1      -3.962   0.609   3.067  1.00  0.00     0.021 A 
ATOM     27  C   UNL     1      -4.795  -0.505   3.020  1.00  0.00     0.041 A 
ATOM     28  Cl  UNL     1      -6.014  -0.713   4.217  1.00  0.00    -0.084 Cl
ENDBRANCH  15  22
ENDBRANCH  14  15
ENDBRANCH   8   9
ENDBRANCH   1   8
TORSDOF 9
