REMARK SMILES CN1c2c([nH]c(N)nc2=O)NC[C@@H]1CNc1ccc(C(=O)N[C@@H](CCC(=O)O)C(=O)O)cc1
REMARK SMILES IDX 20 1 21 2 22 3 19 5 16 6 17 7 33 8 18 9 32 10 15 11 14 13
REMARK SMILES IDX 13 14 2 15 3 16 12 17 4 18 9 19 11 20 5 21 10 22 8 23 6 24
REMARK SMILES IDX 7 25 1 26 23 31 24 32 25 33 26 34 27 35 28 36 29 38 30 39
REMARK SMILES IDX 31 40
REMARK H PARENT 22 4 15 12 11 27 5 28 7 29 7 30 28 37 31 41
ROOT
ATOM      1  C   UNL     1       3.767  -0.923  -0.113  1.00  0.00     0.251 C 
ATOM      2  O   UNL     1       4.148  -2.083  -0.016  1.00  0.00    -0.269 OA
ATOM      3  N   UNL     1       4.616   0.163  -0.014  1.00  0.00    -0.339 N 
ATOM      4  H   UNL     1       4.196   1.029   0.300  1.00  0.00     0.164 HD
ENDROOT
BRANCH   1   5
ATOM      5  C   UNL     1       2.320  -0.616  -0.295  1.00  0.00     0.039 A 
ATOM      6  C   UNL     1      -0.449  -0.105  -0.595  1.00  0.00     0.034 A 
ATOM      7  C   UNL     1       0.013  -1.321  -0.073  1.00  0.00     0.026 A 
ATOM      8  C   UNL     1       0.507   0.823  -1.025  1.00  0.00     0.026 A 
ATOM      9  C   UNL     1       1.380  -1.574   0.087  1.00  0.00     0.016 A 
ATOM     10  C   UNL     1       1.879   0.580  -0.870  1.00  0.00     0.016 A 
BRANCH   6  11
ATOM     11  N   UNL     1      -1.820   0.055  -0.796  1.00  0.00    -0.383 N 
ATOM     12  H   UNL     1      -2.377  -0.513  -0.149  1.00  0.00     0.160 HD
BRANCH  11  13
ATOM     13  C   UNL     1      -2.391   1.400  -0.914  1.00  0.00     0.139 C 
BRANCH  13  14
ATOM     14  C   UNL     1      -3.940   1.340  -0.815  1.00  0.00     0.120 C 
ATOM     15  N   UNL     1      -4.404   0.535   0.370  1.00  0.00    -0.361 N 
ATOM     16  C   UNL     1      -5.647  -0.159   0.260  1.00  0.00     0.146 C 
ATOM     17  C   UNL     1      -4.492   0.745  -2.143  1.00  0.00     0.141 C 
ATOM     18  C   UNL     1      -6.378  -0.195  -0.887  1.00  0.00     0.136 C 
ATOM     19  C   UNL     1      -6.233  -0.950   1.445  1.00  0.00     0.300 C 
ATOM     20  N   UNL     1      -5.929   0.446  -2.040  1.00  0.00    -0.368 N 
ATOM     21  N   UNL     1      -7.580  -0.848  -0.914  1.00  0.00    -0.311 N 
ATOM     22  O   UNL     1      -5.547  -1.175   2.440  1.00  0.00    -0.265 OA
ATOM     23  N   UNL     1      -7.543  -1.383   1.370  1.00  0.00    -0.173 NA
ATOM     24  C   UNL     1      -8.131  -1.323   0.227  1.00  0.00     0.202 C 
ATOM     25  N   UNL     1      -9.408  -1.755   0.072  1.00  0.00    -0.369 N 
ATOM     26  C   UNL     1      -3.940   0.988   1.687  1.00  0.00     0.144 C 
ATOM     27  H   UNL     1      -6.290  -0.008  -2.874  1.00  0.00     0.162 HD
ATOM     28  H   UNL     1      -8.219  -0.501  -1.616  1.00  0.00     0.171 HD
ATOM     29  H   UNL     1      -9.719  -2.219   0.922  1.00  0.00     0.159 HD
ATOM     30  H   UNL     1      -9.528  -2.374  -0.721  1.00  0.00     0.159 HD
ENDBRANCH  13  14
ENDBRANCH  11  13
ENDBRANCH   6  11
ENDBRANCH   1   5
BRANCH   3  31
ATOM     31  C   UNL     1       6.019  -0.041   0.364  1.00  0.00     0.192 C 
BRANCH  31  32
ATOM     32  C   UNL     1       6.873   1.112  -0.180  1.00  0.00     0.049 C 
BRANCH  32  33
ATOM     33  C   UNL     1       8.380   0.915  -0.000  1.00  0.00     0.125 C 
BRANCH  33  34
ATOM     34  C   UNL     1       8.914  -0.225  -0.823  1.00  0.00     0.303 C 
ATOM     35  O   UNL     1       8.409  -0.708  -1.820  1.00  0.00    -0.252 OA
BRANCH  34  36
ATOM     36  O   UNL     1      10.093  -0.679  -0.359  1.00  0.00    -0.481 OA
ATOM     37  H   UNL     1      10.327  -1.408  -0.971  1.00  0.00     0.296 HD
ENDBRANCH  34  36
ENDBRANCH  33  34
ENDBRANCH  32  33
ENDBRANCH  31  32
BRANCH  31  38
ATOM     38  C   UNL     1       6.071  -0.074   1.892  1.00  0.00     0.326 C 
ATOM     39  O   UNL     1       5.370   0.580   2.651  1.00  0.00    -0.250 OA
BRANCH  38  40
ATOM     40  O   UNL     1       7.036  -0.881   2.375  1.00  0.00    -0.480 OA
ATOM     41  H   UNL     1       6.921  -0.843   3.348  1.00  0.00     0.296 HD
ENDBRANCH  38  40
ENDBRANCH  31  38
ENDBRANCH   3  31
TORSDOF 11
