REMARK SMILES Cc1ncc([N+](=O)[O-])n1C[C@H](C)CCl
REMARK SMILES IDX 10 1 11 2 12 3 13 4 14 5 9 6 2 7 5 8 3 9 4 10 1 11 6 12 7 13
REMARK SMILES IDX 8 14
REMARK H PARENT
ROOT
ATOM      1  C   UNL     1       0.294   0.156  -0.846  1.00  0.00     0.249 C 
ENDROOT
BRANCH   1   2
ATOM      2  C   UNL     1       1.425  -0.506  -0.029  1.00  0.00     0.043 C 
ATOM      3  C   UNL     1       1.893   0.375   1.133  1.00  0.00     0.013 C 
BRANCH   2   4
ATOM      4  C   UNL     1       2.633  -0.832  -0.919  1.00  0.00     0.117 C 
ATOM      5  Cl  UNL     1       2.248  -2.086  -2.124  1.00  0.00    -0.126 Cl
ENDBRANCH   2   4
ENDBRANCH   1   2
BRANCH   1   6
ATOM      6  N   UNL     1      -0.961   0.302  -0.122  1.00  0.00    -0.210 N 
ATOM      7  C   UNL     1      -1.896  -0.718   0.020  1.00  0.00     0.193 A 
ATOM      8  C   UNL     1      -1.508   1.409   0.481  1.00  0.00     0.342 A 
ATOM      9  N   UNL     1      -2.946  -0.306   0.703  1.00  0.00    -0.213 NA
ATOM     10  C   UNL     1      -2.719   1.011   0.989  1.00  0.00     0.218 A 
ATOM     11  C   UNL     1      -1.739  -2.090  -0.536  1.00  0.00     0.117 C 
BRANCH   8  12
ATOM     12  N   UNL     1      -0.938   2.711   0.568  1.00  0.00    -0.026 N 
ATOM     13  O   UNL     1      -1.644   3.587   1.081  1.00  0.00    -0.358 OA
ATOM     14  O   UNL     1       0.208   2.878   0.142  1.00  0.00    -0.358 OA
ENDBRANCH   8  12
ENDBRANCH   1   6
TORSDOF 4
