REMARK SMILES CC1=CC(=O)[C@H]2C[C@@H]1C2(C)C
REMARK SMILES IDX 1 1 2 2 3 3 4 4 5 5 6 6 7 7 8 8 9 9 10 10 11 11
REMARK H PARENT
ROOT
ATOM      1  C   UNL     1       2.760  -0.759  -0.356  1.00  0.00     0.040 C 
ATOM      2  C   UNL     1       1.527  -0.178   0.255  1.00  0.00    -0.066 C 
ATOM      3  C   UNL     1       1.312  -0.103   1.585  1.00  0.00     0.047 C 
ATOM      4  C   UNL     1       0.010   0.483   2.040  1.00  0.00     0.159 C 
ATOM      5  O   UNL     1      -0.247   0.543   3.238  1.00  0.00    -0.295 OA
ATOM      6  C   UNL     1      -0.890   0.967   0.826  1.00  0.00     0.067 C 
ATOM      7  C   UNL     1      -0.019   1.789  -0.194  1.00  0.00     0.021 C 
ATOM      8  C   UNL     1       0.460   0.371  -0.677  1.00  0.00     0.022 C 
ATOM      9  C   UNL     1      -1.024  -0.111  -0.343  1.00  0.00    -0.019 C 
ATOM     10  C   UNL     1      -2.076   0.202  -1.423  1.00  0.00     0.012 C 
ATOM     11  C   UNL     1      -1.225  -1.571   0.086  1.00  0.00     0.012 C 
ENDROOT
TORSDOF 0
