REMARK SMILES CNC(=N)NC(=O)Nc1c(C)cccc1C
REMARK SMILES IDX 1 1 2 2 3 3 4 4 5 5 6 6 7 7 8 8 9 13 10 14 15 15 12 16 14 17
REMARK SMILES IDX 13 18 11 19 16 20
REMARK H PARENT 2 9 4 10 5 11 8 12
ROOT
ATOM      1  C   UNL     1       5.465   0.683  -0.624  1.00  0.00     0.143 C 
ATOM      2  N   UNL     1       4.038   0.880  -0.756  1.00  0.00    -0.359 N 
ATOM      3  C   UNL     1       3.105   0.078  -0.169  1.00  0.00     0.196 C 
ATOM      4  N   UNL     1       3.331  -1.078   0.333  1.00  0.00    -0.269 NA
ATOM      5  N   UNL     1       1.828   0.571  -0.179  1.00  0.00    -0.278 N 
ATOM      6  C   UNL     1       0.711   0.033   0.454  1.00  0.00     0.326 C 
ATOM      7  O   UNL     1       0.699  -0.395   1.600  1.00  0.00    -0.248 OA
ATOM      8  N   UNL     1      -0.400   0.173  -0.375  1.00  0.00    -0.307 N 
ATOM      9  H   UNL     1       3.783   1.860  -0.794  1.00  0.00     0.163 HD
ATOM     10  H   UNL     1       4.315  -1.322   0.255  1.00  0.00     0.191 HD
ATOM     11  H   UNL     1       1.639   1.349  -0.783  1.00  0.00     0.174 HD
ATOM     12  H   UNL     1      -0.163  -0.083  -1.322  1.00  0.00     0.171 HD
ENDROOT
BRANCH   8  13
ATOM     13  C   UNL     1      -1.733  -0.106   0.021  1.00  0.00     0.048 A 
ATOM     14  C   UNL     1      -2.545  -0.863  -0.860  1.00  0.00    -0.027 A 
ATOM     15  C   UNL     1      -2.291   0.404   1.215  1.00  0.00    -0.027 A 
ATOM     16  C   UNL     1      -3.871  -1.157  -0.502  1.00  0.00     0.005 A 
ATOM     17  C   UNL     1      -3.615   0.067   1.551  1.00  0.00     0.005 A 
ATOM     18  C   UNL     1      -4.398  -0.707   0.703  1.00  0.00     0.001 A 
ATOM     19  C   UNL     1      -2.030  -1.406  -2.167  1.00  0.00     0.046 C 
ATOM     20  C   UNL     1      -1.563   1.320   2.163  1.00  0.00     0.046 C 
ENDBRANCH   8  13
TORSDOF 1
