REMARK SMILES CS(=O)(=O)c1cccc(C[C@H](NC(=O)c2c(Cl)cc3c(c2Cl)CCN(C(=O)c2ccc4ccoc4c2)C3)C(=O)O)c1
REMARK SMILES IDX 11 1 10 2 9 3 5 4 6 5 41 6 7 7 8 8 2 9 3 10 4 11 1 12 12 13
REMARK SMILES IDX 13 14 14 15 15 17 16 18 21 19 18 20 20 21 19 22 23 23 37 24
REMARK SMILES IDX 24 25 25 26 17 27 22 28 26 29 27 30 28 31 29 32 36 33 30 34
REMARK SMILES IDX 35 35 31 36 34 37 32 38 33 39 38 40 39 41 40 42
REMARK H PARENT 12 16 40 43
ROOT
ATOM      1  C   UNL     1      -3.488   0.402  -1.026  1.00  0.00     0.196 C 
ENDROOT
BRANCH   1   2
ATOM      2  C   UNL     1      -4.342  -0.360  -0.002  1.00  0.00     0.072 C 
BRANCH   2   3
ATOM      3  C   UNL     1      -5.765  -0.602  -0.453  1.00  0.00    -0.044 A 
ATOM      4  C   UNL     1      -8.121  -0.034  -0.405  1.00  0.00     0.067 A 
ATOM      5  C   UNL     1      -8.395  -1.021  -1.356  1.00  0.00     0.020 A 
ATOM      6  C   UNL     1      -6.814   0.189   0.038  1.00  0.00     0.024 A 
ATOM      7  C   UNL     1      -7.354  -1.813  -1.841  1.00  0.00     0.002 A 
ATOM      8  C   UNL     1      -6.048  -1.607  -1.390  1.00  0.00     0.004 A 
BRANCH   4   9
ATOM      9  S   UNL     1      -9.444   0.971   0.227  1.00  0.00     0.175 S 
ATOM     10  O   UNL     1     -10.490   1.011  -0.779  1.00  0.00    -0.224 OA
ATOM     11  O   UNL     1      -8.863   2.196   0.747  1.00  0.00    -0.224 OA
ATOM     12  C   UNL     1     -10.045   0.025   1.602  1.00  0.00     0.163 C 
ENDBRANCH   4   9
ENDBRANCH   2   3
ENDBRANCH   1   2
BRANCH   1  13
ATOM     13  N   UNL     1      -2.063   0.303  -0.686  1.00  0.00    -0.338 N 
ATOM     14  C   UNL     1      -1.320  -0.822  -0.954  1.00  0.00     0.255 C 
ATOM     15  O   UNL     1      -1.770  -1.864  -1.407  1.00  0.00    -0.269 OA
ATOM     16  H   UNL     1      -1.618   1.162  -0.381  1.00  0.00     0.164 HD
BRANCH  14  17
ATOM     17  C   UNL     1       0.110  -0.704  -0.625  1.00  0.00     0.077 A 
ATOM     18  C   UNL     1       0.957   0.023  -1.467  1.00  0.00     0.055 A 
ATOM     19  C   UNL     1       0.618  -1.317   0.534  1.00  0.00     0.058 A 
ATOM     20  C   UNL     1       2.309   0.158  -1.145  1.00  0.00     0.027 A 
ATOM     21  C   UNL     1       1.979  -1.165   0.869  1.00  0.00    -0.022 A 
ATOM     22  C   UNL     1       2.828  -0.419   0.023  1.00  0.00    -0.022 A 
ATOM     23  C   UNL     1       2.609  -1.796   2.089  1.00  0.00     0.059 C 
ATOM     24  C   UNL     1       4.306  -0.277   0.318  1.00  0.00     0.155 C 
ATOM     25  C   UNL     1       3.666  -0.865   2.676  1.00  0.00     0.125 C 
ATOM     26  N   UNL     1       4.700  -0.500   1.713  1.00  0.00    -0.334 N 
ATOM     27  Cl  UNL     1       0.405   0.773  -2.923  1.00  0.00    -0.083 Cl
ATOM     28  Cl  UNL     1      -0.435  -2.230   1.573  1.00  0.00    -0.083 Cl
BRANCH  26  29
ATOM     29  C   UNL     1       5.896  -0.006   2.243  1.00  0.00     0.254 C 
ATOM     30  O   UNL     1       6.103   0.123   3.447  1.00  0.00    -0.269 OA
BRANCH  29  31
ATOM     31  C   UNL     1       6.966   0.417   1.315  1.00  0.00     0.043 A 
ATOM     32  C   UNL     1       7.452   1.726   1.413  1.00  0.00     0.015 A 
ATOM     33  C   UNL     1       7.513  -0.506   0.411  1.00  0.00     0.061 A 
ATOM     34  C   UNL     1       8.465   2.181   0.557  1.00  0.00     0.013 A 
ATOM     35  C   UNL     1       8.515  -0.016  -0.421  1.00  0.00     0.134 A 
ATOM     36  C   UNL     1       8.994   1.290  -0.390  1.00  0.00     0.020 A 
ATOM     37  O   UNL     1       9.163  -0.737  -1.376  1.00  0.00    -0.464 OA
ATOM     38  C   UNL     1       9.987   1.358  -1.404  1.00  0.00     0.050 A 
ATOM     39  C   UNL     1      10.057   0.102  -1.964  1.00  0.00     0.196 A 
ENDBRANCH  29  31
ENDBRANCH  26  29
ENDBRANCH  14  17
ENDBRANCH   1  13
BRANCH   1  40
ATOM     40  C   UNL     1      -3.877   1.883  -1.046  1.00  0.00     0.326 C 
ATOM     41  O   UNL     1      -4.930   2.366  -1.425  1.00  0.00    -0.250 OA
BRANCH  40  42
ATOM     42  O   UNL     1      -2.921   2.697  -0.534  1.00  0.00    -0.480 OA
ATOM     43  H   UNL     1      -3.343   3.581  -0.586  1.00  0.00     0.296 HD
ENDBRANCH  40  42
ENDBRANCH   1  40
TORSDOF 9
