REMARK SMILES N=c1c[n+](N2CCOCC2)[n-]o1
REMARK SMILES IDX 1 1 2 2 12 3 11 4 4 5 3 6 5 8 6 9 10 10 7 11 9 12 8 13
REMARK H PARENT 1 7
ROOT
ATOM      1  N   UNL     1       4.589   0.544  -0.158  1.00  0.00    -0.262 NA
ATOM      2  C   UNL     1       3.430   0.228   0.290  1.00  0.00     0.286 C 
ATOM      3  O   UNL     1       3.198  -0.323   1.499  1.00  0.00    -0.380 OA
ATOM      4  N   UNL     1       1.764  -0.531   1.636  1.00  0.00    -0.008 NA
ATOM      5  N   UNL     1       1.193  -0.037   0.370  1.00  0.00    -0.098 N 
ATOM      6  C   UNL     1       2.134   0.387  -0.383  1.00  0.00     0.402 C 
ATOM      7  H   UNL     1       5.243   0.285   0.592  1.00  0.00     0.191 HD
ENDROOT
BRANCH   5   8
ATOM      8  N   UNL     1      -0.260  -0.052   0.066  1.00  0.00    -0.268 NA
ATOM      9  C   UNL     1      -1.213  -0.627   1.012  1.00  0.00     0.094 C 
ATOM     10  C   UNL     1      -0.800   0.496  -1.172  1.00  0.00     0.094 C 
ATOM     11  C   UNL     1      -2.437  -1.162   0.263  1.00  0.00     0.164 C 
ATOM     12  C   UNL     1      -2.264   0.901  -0.977  1.00  0.00     0.164 C 
ATOM     13  O   UNL     1      -3.102  -0.178  -0.544  1.00  0.00    -0.381 OA
ENDBRANCH   5   8
TORSDOF 1
