REMARK SMILES COc1cccc(N(C)C(=S)Oc2ccc3c(c2)CCCC3)n1
REMARK SMILES IDX 8 1 9 2 7 3 3 4 23 5 4 6 5 7 6 8 2 9 1 10 10 11 11 12 12 13
REMARK SMILES IDX 13 14 14 15 18 16 15 17 17 18 16 19 19 20 22 21 20 22 21 23
REMARK H PARENT
ROOT
ATOM      1  N   UNL     1       2.262   0.471   0.470  1.00  0.00    -0.290 N 
ATOM      2  C   UNL     1       2.272   0.640   1.927  1.00  0.00     0.156 C 
ENDROOT
BRANCH   1   3
ATOM      3  C   UNL     1       3.565   0.481  -0.126  1.00  0.00     0.139 A 
ATOM      4  C   UNL     1       5.861   0.271   0.179  1.00  0.00     0.214 A 
ATOM      5  N   UNL     1       4.615   0.250   0.700  1.00  0.00    -0.196 NA
ATOM      6  C   UNL     1       6.137   0.549  -1.145  1.00  0.00     0.068 A 
ATOM      7  C   UNL     1       5.068   0.830  -1.981  1.00  0.00     0.009 A 
ATOM      8  C   UNL     1       3.772   0.805  -1.465  1.00  0.00     0.048 A 
BRANCH   4   9
ATOM      9  O   UNL     1       6.952   0.018   0.988  1.00  0.00    -0.481 OA
ATOM     10  C   UNL     1       6.592  -0.293   2.329  1.00  0.00     0.280 C 
ENDBRANCH   4   9
ENDBRANCH   1   3
BRANCH   1  11
ATOM     11  C   UNL     1       1.056   0.191  -0.185  1.00  0.00     0.270 C 
ATOM     12  S   UNL     1       0.824  -0.628  -1.634  1.00  0.00    -0.018 S 
BRANCH  11  13
ATOM     13  O   UNL     1      -0.061   0.628   0.558  1.00  0.00    -0.432 OA
BRANCH  13  14
ATOM     14  C   UNL     1      -1.418   0.527   0.168  1.00  0.00     0.130 A 
ATOM     15  C   UNL     1      -1.988   1.562  -0.562  1.00  0.00     0.047 A 
ATOM     16  C   UNL     1      -2.160  -0.571   0.593  1.00  0.00     0.051 A 
ATOM     17  C   UNL     1      -3.335   1.474  -0.909  1.00  0.00     0.008 A 
ATOM     18  C   UNL     1      -3.517  -0.659   0.253  1.00  0.00    -0.041 A 
ATOM     19  C   UNL     1      -4.104   0.363  -0.522  1.00  0.00    -0.045 A 
ATOM     20  C   UNL     1      -4.299  -1.879   0.674  1.00  0.00     0.036 C 
ATOM     21  C   UNL     1      -5.567   0.323  -0.895  1.00  0.00     0.036 C 
ATOM     22  C   UNL     1      -5.812  -1.687   0.580  1.00  0.00     0.005 C 
ATOM     23  C   UNL     1      -6.187  -1.066  -0.759  1.00  0.00     0.005 C 
ENDBRANCH  13  14
ENDBRANCH  11  13
ENDBRANCH   1  11
TORSDOF 5
