REMARK SMILES NC[C@@H]1O[C@H](O[C@H]2[C@@H](O)[C@H](O[C@@H]3[C@@H](O)[C@H](N)C[C@H](N)[C@H]3O[C@H]3O[C@H](CO)[C@@H](O)C[C@H]3N)O[C@@H]2CO)[C@H](N)[C@@H](O)[C@@H]1O[C@H]1O[C@H](CO)[C@@H](O)[C@H](O)[C@@H]1O
REMARK SMILES IDX 7 1 33 2 32 3 10 4 8 5 6 6 5 7 3 8 4 9 40 10 38 11 36 12
REMARK SMILES IDX 2 13 1 14 41 17 42 18 43 19 51 20 44 21 49 22 47 23 52 24
REMARK SMILES IDX 45 26 46 27 50 29 48 31 39 33 37 35 34 38 35 39 9 41 11 43
REMARK SMILES IDX 12 44 13 45 20 46 15 47 18 48 17 49 14 50 21 52 22 53 23 54
REMARK SMILES IDX 30 55 24 56 29 57 27 58 31 59 25 62 26 63 28 65 16 67 19 70
REMARK H PARENT 1 15 1 16 52 25 46 28 50 30 48 32 39 34 37 36 37 37 35 40 9 42
REMARK H PARENT 14 51 31 60 31 61 26 64 28 66 16 68 16 69 19 71 19 72
ROOT
ATOM      1  C   UNL     1       0.426   0.573  -0.474  1.00  0.00     0.186 C 
ATOM      2  C   UNL     1       0.160  -0.671   0.400  1.00  0.00     0.179 C 
ATOM      3  O   UNL     1      -1.092  -1.260  -0.039  1.00  0.00    -0.341 OA
ATOM      4  C   UNL     1      -1.688  -0.360  -0.985  1.00  0.00     0.282 C 
ATOM      5  C   UNL     1      -0.521   0.350  -1.653  1.00  0.00     0.202 C 
ENDROOT
BRANCH   1   6
ATOM      6  O   UNL     1       1.742   0.713  -1.028  1.00  0.00    -0.342 OA
BRANCH   6   7
ATOM      7  C   UNL     1       2.733   1.116  -0.073  1.00  0.00     0.270 C 
ATOM      8  C   UNL     1       4.200   0.321   1.605  1.00  0.00     0.166 C 
ATOM      9  O   UNL     1       3.245  -0.036   0.587  1.00  0.00    -0.344 OA
ATOM     10  C   UNL     1       5.452   0.985   0.995  1.00  0.00     0.182 C 
ATOM     11  C   UNL     1       5.030   2.187   0.123  1.00  0.00     0.168 C 
ATOM     12  C   UNL     1       3.879   1.831  -0.848  1.00  0.00     0.139 C 
BRANCH   8  13
ATOM     13  C   UNL     1       4.560  -0.964   2.377  1.00  0.00     0.112 C 
BRANCH  13  14
ATOM     14  N   UNL     1       3.418  -1.436   3.186  1.00  0.00    -0.328 NA
ATOM     15  H   UNL     1       3.664  -2.345   3.577  1.00  0.00     0.118 HD
ATOM     16  H   UNL     1       3.304  -0.810   3.986  1.00  0.00     0.118 HD
ENDBRANCH  13  14
ENDBRANCH   8  13
BRANCH  10  17
ATOM     17  O   UNL     1       6.174   0.033   0.196  1.00  0.00    -0.341 OA
BRANCH  17  18
ATOM     18  C   UNL     1       7.590   0.264   0.192  1.00  0.00     0.282 C 
ATOM     19  O   UNL     1       8.189  -0.704   1.055  1.00  0.00    -0.341 OA
ATOM     20  C   UNL     1       8.115   0.226  -1.266  1.00  0.00     0.202 C 
ATOM     21  C   UNL     1       8.527  -1.904   0.368  1.00  0.00     0.178 C 
ATOM     22  C   UNL     1       9.550  -0.303  -1.332  1.00  0.00     0.179 C 
ATOM     23  C   UNL     1       9.694  -1.654  -0.608  1.00  0.00     0.177 C 
BRANCH  20  24
ATOM     24  O   UNL     1       8.091   1.544  -1.842  1.00  0.00    -0.385 OA
ATOM     25  H   UNL     1       8.889   1.994  -1.492  1.00  0.00     0.211 HD
ENDBRANCH  20  24
BRANCH  21  26
ATOM     26  C   UNL     1       8.893  -2.984   1.396  1.00  0.00     0.191 C 
BRANCH  26  27
ATOM     27  O   UNL     1       9.289  -4.222   0.805  1.00  0.00    -0.394 OA
ATOM     28  H   UNL     1       9.268  -4.118  -0.165  1.00  0.00     0.210 HD
ENDBRANCH  26  27
ENDBRANCH  21  26
BRANCH  22  29
ATOM     29  O   UNL     1      10.403   0.696  -0.737  1.00  0.00    -0.387 OA
ATOM     30  H   UNL     1      11.326   0.442  -0.919  1.00  0.00     0.211 HD
ENDBRANCH  22  29
BRANCH  23  31
ATOM     31  O   UNL     1       9.741  -2.731  -1.551  1.00  0.00    -0.387 OA
ATOM     32  H   UNL     1      10.532  -2.601  -2.104  1.00  0.00     0.211 HD
ENDBRANCH  23  31
ENDBRANCH  17  18
ENDBRANCH  10  17
BRANCH  11  33
ATOM     33  O   UNL     1       4.629   3.270   0.973  1.00  0.00    -0.388 OA
ATOM     34  H   UNL     1       4.566   4.060   0.404  1.00  0.00     0.211 HD
ENDBRANCH  11  33
BRANCH  12  35
ATOM     35  N   UNL     1       4.375   1.010  -1.976  1.00  0.00    -0.321 NA
ATOM     36  H   UNL     1       3.556   0.633  -2.456  1.00  0.00     0.119 HD
ATOM     37  H   UNL     1       4.811   0.177  -1.567  1.00  0.00     0.119 HD
ENDBRANCH  12  35
ENDBRANCH   6   7
ENDBRANCH   1   6
BRANCH   2  38
ATOM     38  C   UNL     1      -0.016  -0.344   1.889  1.00  0.00     0.191 C 
BRANCH  38  39
ATOM     39  O   UNL     1       1.146   0.208   2.475  1.00  0.00    -0.394 OA
ATOM     40  H   UNL     1       1.837  -0.495   2.434  1.00  0.00     0.210 HD
ENDBRANCH  38  39
ENDBRANCH   2  38
BRANCH   5  41
ATOM     41  O   UNL     1       0.085  -0.489  -2.650  1.00  0.00    -0.385 OA
ATOM     42  H   UNL     1       1.041  -0.297  -2.585  1.00  0.00     0.211 HD
ENDBRANCH   5  41
BRANCH   4  43
ATOM     43  O   UNL     1      -2.459   0.584  -0.253  1.00  0.00    -0.341 OA
BRANCH  43  44
ATOM     44  C   UNL     1      -3.710   0.912  -0.868  1.00  0.00     0.182 C 
ATOM     45  C   UNL     1      -4.074   2.369  -0.484  1.00  0.00     0.163 C 
ATOM     46  C   UNL     1      -4.821  -0.055  -0.398  1.00  0.00     0.170 C 
ATOM     47  C   UNL     1      -4.981   2.470   0.771  1.00  0.00     0.084 C 
ATOM     48  C   UNL     1      -4.932  -0.038   1.165  1.00  0.00     0.084 C 
ATOM     49  C   UNL     1      -4.662   1.360   1.771  1.00  0.00     0.043 C 
BRANCH  45  50
ATOM     50  O   UNL     1      -4.744   3.011  -1.582  1.00  0.00    -0.389 OA
ATOM     51  H   UNL     1      -5.553   2.489  -1.735  1.00  0.00     0.211 HD
ENDBRANCH  45  50
BRANCH  46  52
ATOM     52  O   UNL     1      -6.021   0.334  -1.099  1.00  0.00    -0.343 OA
BRANCH  52  53
ATOM     53  C   UNL     1      -7.166  -0.494  -0.836  1.00  0.00     0.267 C 
ATOM     54  O   UNL     1      -7.882   0.074   0.258  1.00  0.00    -0.343 OA
ATOM     55  C   UNL     1      -8.059  -0.468  -2.113  1.00  0.00     0.110 C 
ATOM     56  C   UNL     1      -9.093  -0.619   0.610  1.00  0.00     0.175 C 
ATOM     57  C   UNL     1      -9.336  -1.271  -1.867  1.00  0.00     0.058 C 
ATOM     58  C   UNL     1     -10.045  -0.808  -0.590  1.00  0.00     0.147 C 
BRANCH  55  59
ATOM     59  N   UNL     1      -8.432   0.921  -2.504  1.00  0.00    -0.323 NA
ATOM     60  H   UNL     1      -7.729   1.548  -2.100  1.00  0.00     0.119 HD
ATOM     61  H   UNL     1      -8.327   1.013  -3.520  1.00  0.00     0.119 HD
ENDBRANCH  55  59
BRANCH  56  62
ATOM     62  C   UNL     1      -8.793  -1.913   1.381  1.00  0.00     0.190 C 
BRANCH  62  63
ATOM     63  O   UNL     1      -8.345  -2.973   0.537  1.00  0.00    -0.394 OA
ATOM     64  H   UNL     1      -8.216  -3.750   1.113  1.00  0.00     0.210 HD
ENDBRANCH  62  63
ENDBRANCH  56  62
BRANCH  58  65
ATOM     65  O   UNL     1     -10.682   0.454  -0.863  1.00  0.00    -0.390 OA
ATOM     66  H   UNL     1     -10.005   0.990  -1.340  1.00  0.00     0.211 HD
ENDBRANCH  58  65
ENDBRANCH  52  53
ENDBRANCH  46  52
BRANCH  47  67
ATOM     67  N   UNL     1      -4.840   3.798   1.386  1.00  0.00    -0.325 NA
ATOM     68  H   UNL     1      -5.026   4.499   0.669  1.00  0.00     0.119 HD
ATOM     69  H   UNL     1      -5.554   3.923   2.102  1.00  0.00     0.119 HD
ENDBRANCH  47  67
BRANCH  48  70
ATOM     70  N   UNL     1      -4.030  -1.004   1.815  1.00  0.00    -0.325 NA
ATOM     71  H   UNL     1      -3.066  -0.789   1.546  1.00  0.00     0.119 HD
ATOM     72  H   UNL     1      -4.205  -1.949   1.470  1.00  0.00     0.119 HD
ENDBRANCH  48  70
ENDBRANCH  43  44
ENDBRANCH   4  43
TORSDOF 27
