REMARK SMILES NC(=O)N1CCC(CC(=O)N2CCC([C@H]3c4ncc(Br)cc4CCc4cc(Cl)cc(Br)c43)CC2)CC1
REMARK SMILES IDX 9 1 10 2 11 3 12 4 13 5 14 6 33 7 34 8 8 9 7 10 6 11 5 12
REMARK SMILES IDX 4 13 35 14 36 15 2 16 3 17 1 18 15 21 32 22 25 23 30 24
REMARK SMILES IDX 26 25 29 26 27 27 31 28 28 29 24 30 16 32 22 33 17 34 21 35
REMARK SMILES IDX 18 36 19 37 20 38 23 39
REMARK H PARENT 1 19 1 20
REMARK Flexibility Score:   31.900
ROOT
ATOM      1  C   UNL     1       1.895   1.166  -1.068  1.00  0.00     0.222 C 
ATOM      2  O   UNL     1       2.117   1.299  -2.274  1.00  0.00    -0.275 OA
ATOM      3  N   UNL     1       0.617   1.326  -0.522  1.00  0.00    -0.343 N 
ATOM      4  C   UNL     1       0.253   0.811   0.797  1.00  0.00     0.120 C 
ATOM      5  C   UNL     1      -0.948   1.529   1.405  1.00  0.00     0.026 C 
ATOM      6  C   UNL     1      -2.164   1.742   0.495  1.00  0.00     0.006 C 
ATOM      7  C   UNL     1      -1.627   2.320  -0.848  1.00  0.00     0.026 C 
ATOM      8  C   UNL     1      -0.487   1.509  -1.457  1.00  0.00     0.120 C 
ENDROOT
BRANCH   1   9
ATOM      9  C   UNL     1       3.022   0.836  -0.090  1.00  0.00     0.104 C 
BRANCH   9  10
ATOM     10  C   UNL     1       4.423   0.835  -0.730  1.00  0.00     0.002 C 
ATOM     11  C   UNL     1       4.662  -0.383  -1.648  1.00  0.00     0.026 C 
ATOM     12  C   UNL     1       5.538  -1.460  -1.009  1.00  0.00     0.121 C 
ATOM     13  N   UNL     1       6.825  -0.926  -0.554  1.00  0.00    -0.325 N 
ATOM     14  C   UNL     1       5.498   0.937   0.367  1.00  0.00     0.026 C 
ATOM     15  C   UNL     1       6.857   0.474  -0.141  1.00  0.00     0.121 C 
ATOM     16  C   UNL     1       8.024  -1.597  -0.637  1.00  0.00     0.314 C 
ATOM     17  O   UNL     1       9.123  -1.086  -0.448  1.00  0.00    -0.249 OA
ATOM     18  N   UNL     1       7.944  -2.916  -0.942  1.00  0.00    -0.351 N 
ATOM     19  H   UNL     1       8.851  -3.366  -0.909  1.00  0.00     0.161 HD
ATOM     20  H   UNL     1       7.207  -3.426  -0.478  1.00  0.00     0.161 HD
ENDBRANCH   9  10
ENDBRANCH   1   9
BRANCH   6  21
ATOM     21  C   UNL     1      -3.283   0.645   0.268  1.00  0.00     0.073 C 
BRANCH  21  22
ATOM     22  C   UNL     1      -4.474   0.577   1.243  1.00  0.00    -0.021 A 
ATOM     23  C   UNL     1      -5.774   0.669   0.666  1.00  0.00    -0.041 A 
ATOM     24  C   UNL     1      -4.413   0.302   2.619  1.00  0.00     0.023 A 
ATOM     25  C   UNL     1      -6.916   0.758   1.478  1.00  0.00     0.024 A 
ATOM     26  C   UNL     1      -5.558   0.393   3.427  1.00  0.00     0.036 A 
ATOM     27  C   UNL     1      -6.795   0.658   2.857  1.00  0.00     0.042 A 
ATOM     28  Br  UNL     1      -2.915  -0.487   3.471  1.00  0.00    -0.050 Br
ATOM     29  Cl  UNL     1      -8.197   0.751   3.849  1.00  0.00    -0.084 Cl
BRANCH  23  30
ATOM     30  C   UNL     1      -5.958   0.537  -0.835  1.00  0.00     0.041 CG0
ATOM     31  G   UNL     1      -5.454  -0.822  -1.374  1.00  0.00     0.000 G0
ENDBRANCH  23  30
ENDBRANCH  21  22
BRANCH  21  32
ATOM     32  C   UNL     1      -3.040  -0.716  -0.346  1.00  0.00     0.051 A 
ATOM     33  C   UNL     1      -4.047  -1.350  -1.107  1.00  0.00    -0.024 A 
ATOM     34  N   UNL     1      -1.847  -1.303  -0.090  1.00  0.00    -0.259 NA
ATOM     35  C   UNL     1      -3.753  -2.624  -1.635  1.00  0.00     0.023 A 
ATOM     36  C   UNL     1      -1.611  -2.529  -0.615  1.00  0.00     0.127 A 
ATOM     37  C   UNL     1      -2.523  -3.218  -1.389  1.00  0.00     0.036 A 
ATOM     38  Br  UNL     1      -2.119  -4.925  -2.080  1.00  0.00    -0.049 Br
BRANCH  33  39
ATOM     39  C   UNL     1      -5.454  -0.822  -1.374  1.00  0.00     0.042 CG0
ATOM     40  G   UNL     1      -5.958   0.537  -0.835  1.00  0.00     0.000 G0
ENDBRANCH  33  39
ENDBRANCH  21  32
ENDBRANCH   6  21
TORSDOF 3
