REMARK SMILES O=C(O)c1nn(Cc2ccc(Cl)cc2Cl)c2ccccc12
REMARK SMILES IDX 4 1 5 2 6 3 16 4 21 5 20 6 19 7 18 8 17 9 2 10 1 11 3 12
REMARK SMILES IDX 7 14 8 15 14 16 9 17 13 18 10 19 11 20 15 21 12 22
REMARK H PARENT 3 13
ROOT
ATOM      1  C   UNL     1      -1.653   1.060  -1.266  1.00  0.00     0.178 A 
ATOM      2  N   UNL     1      -0.397   0.682  -1.573  1.00  0.00    -0.164 NA
ATOM      3  N   UNL     1      -0.204  -0.455  -0.877  1.00  0.00    -0.260 N 
ATOM      4  C   UNL     1      -1.301  -0.859  -0.154  1.00  0.00     0.070 A 
ATOM      5  C   UNL     1      -2.265   0.123  -0.380  1.00  0.00     0.035 A 
ATOM      6  C   UNL     1      -3.522   0.001   0.246  1.00  0.00     0.013 A 
ATOM      7  C   UNL     1      -3.773  -1.099   1.072  1.00  0.00     0.001 A 
ATOM      8  C   UNL     1      -2.796  -2.069   1.279  1.00  0.00     0.002 A 
ATOM      9  C   UNL     1      -1.541  -1.969   0.671  1.00  0.00     0.028 A 
ENDROOT
BRANCH   1  10
ATOM     10  C   UNL     1      -2.265   2.278  -1.804  1.00  0.00     0.357 C 
ATOM     11  O   UNL     1      -3.401   2.670  -1.563  1.00  0.00    -0.244 OA
BRANCH  10  12
ATOM     12  O   UNL     1      -1.479   3.009  -2.634  1.00  0.00    -0.476 OA
ATOM     13  H   UNL     1      -2.045   3.763  -2.884  1.00  0.00     0.297 HD
ENDBRANCH  10  12
ENDBRANCH   1  10
BRANCH   3  14
ATOM     14  C   UNL     1       1.082  -1.136  -0.975  1.00  0.00     0.182 C 
BRANCH  14  15
ATOM     15  C   UNL     1       2.134  -0.460  -0.125  1.00  0.00    -0.008 A 
ATOM     16  C   UNL     1       3.109   0.400  -0.661  1.00  0.00     0.047 A 
ATOM     17  C   UNL     1       2.125  -0.673   1.268  1.00  0.00     0.009 A 
ATOM     18  C   UNL     1       4.047   1.023   0.169  1.00  0.00     0.041 A 
ATOM     19  C   UNL     1       3.062  -0.050   2.095  1.00  0.00     0.021 A 
ATOM     20  C   UNL     1       4.018   0.796   1.541  1.00  0.00     0.042 A 
ATOM     21  Cl  UNL     1       3.224   0.720  -2.355  1.00  0.00    -0.084 Cl
ATOM     22  Cl  UNL     1       5.173   1.562   2.560  1.00  0.00    -0.084 Cl
ENDBRANCH  14  15
ENDBRANCH   3  14
TORSDOF 4
