REMARK SMILES CN(C)C(=O)C(CCN1CCC(O)(c2ccc(Cl)cc2)CC1)(c1ccccc1)c1ccccc1
REMARK SMILES IDX 7 1 6 2 4 3 2 4 5 5 1 6 3 7 23 8 24 9 28 10 25 11 27 12
REMARK SMILES IDX 26 13 29 14 30 15 34 16 31 17 33 18 32 19 8 20 9 21 10 22
REMARK SMILES IDX 22 23 11 24 21 25 12 26 13 27 14 29 15 30 20 31 16 32 19 33
REMARK SMILES IDX 17 34 18 35
REMARK H PARENT 13 28
ROOT
ATOM      1  C   UNL     1      -0.978   0.313  -1.077  1.00  0.00     0.042 C 
ENDROOT
BRANCH   1   2
ATOM      2  C   UNL     1      -2.453   0.131  -0.509  1.00  0.00     0.100 C 
BRANCH   2   3
ATOM      3  C   UNL     1      -3.310  -0.470  -1.717  1.00  0.00     0.237 C 
ATOM      4  N   UNL     1      -4.684  -0.703  -1.592  1.00  0.00    -0.348 N 
ATOM      5  O   UNL     1      -2.750  -0.743  -2.789  1.00  0.00    -0.273 OA
ATOM      6  C   UNL     1      -5.456  -0.594  -0.366  1.00  0.00     0.146 C 
ATOM      7  C   UNL     1      -5.356  -1.402  -2.679  1.00  0.00     0.146 C 
ENDBRANCH   2   3
BRANCH   2   8
ATOM      8  C   UNL     1      -2.438  -0.960   0.611  1.00  0.00    -0.028 A 
ATOM      9  C   UNL     1      -1.827  -2.207   0.350  1.00  0.00     0.005 A 
ATOM     10  C   UNL     1      -3.056  -0.813   1.866  1.00  0.00     0.005 A 
ATOM     11  C   UNL     1      -1.788  -3.225   1.308  1.00  0.00     0.000 A 
ATOM     12  C   UNL     1      -3.017  -1.830   2.827  1.00  0.00     0.000 A 
ATOM     13  C   UNL     1      -2.376  -3.032   2.551  1.00  0.00     0.000 A 
ENDBRANCH   2   8
BRANCH   2  14
ATOM     14  C   UNL     1      -2.926   1.572  -0.139  1.00  0.00    -0.028 A 
ATOM     15  C   UNL     1      -2.571   2.194   1.076  1.00  0.00     0.005 A 
ATOM     16  C   UNL     1      -3.640   2.358  -1.066  1.00  0.00     0.005 A 
ATOM     17  C   UNL     1      -2.966   3.502   1.375  1.00  0.00     0.000 A 
ATOM     18  C   UNL     1      -4.036   3.666  -0.768  1.00  0.00     0.000 A 
ATOM     19  C   UNL     1      -3.706   4.235   0.456  1.00  0.00     0.000 A 
ENDBRANCH   2  14
ENDBRANCH   1   2
BRANCH   1  20
ATOM     20  C   UNL     1       0.105   0.714  -0.056  1.00  0.00     0.086 C 
BRANCH  20  21
ATOM     21  N   UNL     1       1.472   0.715  -0.618  1.00  0.00    -0.303 NA
ATOM     22  C   UNL     1       2.434   1.366   0.283  1.00  0.00     0.088 C 
ATOM     23  C   UNL     1       1.896  -0.619  -1.069  1.00  0.00     0.088 C 
ATOM     24  C   UNL     1       3.177   0.384   1.186  1.00  0.00     0.056 C 
ATOM     25  C   UNL     1       3.414  -0.804  -1.061  1.00  0.00     0.056 C 
ATOM     26  C   UNL     1       3.983  -0.647   0.363  1.00  0.00     0.092 C 
BRANCH  26  27
ATOM     27  O   UNL     1       3.846  -1.907   1.050  1.00  0.00    -0.385 OA
ATOM     28  H   UNL     1       2.899  -2.104   1.131  1.00  0.00     0.211 HD
ENDBRANCH  26  27
BRANCH  26  29
ATOM     29  C   UNL     1       5.486  -0.358   0.261  1.00  0.00    -0.016 A 
ATOM     30  C   UNL     1       6.406  -1.422   0.163  1.00  0.00     0.008 A 
ATOM     31  C   UNL     1       5.998   0.951   0.202  1.00  0.00     0.008 A 
ATOM     32  C   UNL     1       7.779  -1.190   0.034  1.00  0.00     0.021 A 
ATOM     33  C   UNL     1       7.372   1.186   0.073  1.00  0.00     0.021 A 
ATOM     34  C   UNL     1       8.256   0.114  -0.009  1.00  0.00     0.041 A 
ATOM     35  Cl  UNL     1       9.944   0.406  -0.169  1.00  0.00    -0.084 Cl
ENDBRANCH  26  29
ENDBRANCH  20  21
ENDBRANCH   1  20
TORSDOF 8
