REMARK SMILES Cc1cccc(C)c1OCC(=O)N[C@@H](Cc1ccccc1)[C@@H](O)C[C@H](Cc1ccccc1)NC(=O)[C@H](C(C)C)N1CCCNC1=O
REMARK SMILES IDX 22 1 24 2 25 3 33 4 34 5 35 6 36 8 37 9 38 10 39 11 40 12
REMARK SMILES IDX 41 13 45 14 42 15 44 16 46 17 43 18 26 20 27 21 28 22 32 23
REMARK SMILES IDX 29 24 31 25 30 26 23 27 14 29 15 30 16 31 17 32 21 33 18 34
REMARK SMILES IDX 20 35 19 36 13 37 11 38 12 39 10 41 9 42 8 43 2 44 6 45 3 46
REMARK SMILES IDX 5 47 4 48 1 49 7 50
REMARK H PARENT 33 7 44 19 23 28 13 40
ROOT
ATOM      1  C   UNL     1       0.868  -0.210  -0.127  1.00  0.00     0.139 C 
ENDROOT
BRANCH   1   2
ATOM      2  C   UNL     1      -0.622   0.013  -0.428  1.00  0.00     0.059 C 
BRANCH   2   3
ATOM      3  C   UNL     1      -1.525   0.274   0.790  1.00  0.00     0.089 C 
BRANCH   3   4
ATOM      4  N   UNL     1      -2.848   0.675   0.309  1.00  0.00    -0.351 N 
ATOM      5  C   UNL     1      -3.668   1.537   1.013  1.00  0.00     0.243 C 
ATOM      6  O   UNL     1      -3.412   1.935   2.147  1.00  0.00    -0.273 OA
ATOM      7  H   UNL     1      -3.270   0.165  -0.474  1.00  0.00     0.163 HD
BRANCH   5   8
ATOM      8  C   UNL     1      -4.951   1.934   0.245  1.00  0.00     0.178 C 
BRANCH   8   9
ATOM      9  C   UNL     1      -5.485   3.328   0.670  1.00  0.00     0.015 C 
ATOM     10  C   UNL     1      -4.464   4.428   0.353  1.00  0.00     0.010 C 
ATOM     11  C   UNL     1      -6.802   3.667  -0.041  1.00  0.00     0.010 C 
ENDBRANCH   8   9
BRANCH   8  12
ATOM     12  N   UNL     1      -5.932   0.833   0.375  1.00  0.00    -0.312 N 
ATOM     13  C   UNL     1      -6.585   0.608   1.665  1.00  0.00     0.124 C 
ATOM     14  C   UNL     1      -5.851  -0.198  -0.541  1.00  0.00     0.318 C 
ATOM     15  C   UNL     1      -7.889  -0.142   1.467  1.00  0.00     0.043 C 
ATOM     16  N   UNL     1      -6.722  -1.232  -0.378  1.00  0.00    -0.338 N 
ATOM     17  O   UNL     1      -5.040  -0.221  -1.469  1.00  0.00    -0.249 OA
ATOM     18  C   UNL     1      -7.557  -1.447   0.780  1.00  0.00     0.119 C 
ATOM     19  H   UNL     1      -6.566  -1.994  -1.022  1.00  0.00     0.165 HD
ENDBRANCH   8  12
ENDBRANCH   5   8
ENDBRANCH   3   4
BRANCH   3  20
ATOM     20  C   UNL     1      -1.574  -0.855   1.841  1.00  0.00     0.060 C 
BRANCH  20  21
ATOM     21  C   UNL     1      -2.001  -2.221   1.354  1.00  0.00    -0.046 A 
ATOM     22  C   UNL     1      -1.064  -3.255   1.220  1.00  0.00     0.004 A 
ATOM     23  C   UNL     1      -3.348  -2.491   1.082  1.00  0.00     0.004 A 
ATOM     24  C   UNL     1      -1.469  -4.526   0.812  1.00  0.00     0.000 A 
ATOM     25  C   UNL     1      -3.753  -3.758   0.661  1.00  0.00     0.000 A 
ATOM     26  C   UNL     1      -2.811  -4.775   0.522  1.00  0.00     0.000 A 
ENDBRANCH  20  21
ENDBRANCH   3  20
ENDBRANCH   2   3
ENDBRANCH   1   2
BRANCH   1  27
ATOM     27  O   UNL     1       1.247   0.618   0.980  1.00  0.00    -0.391 OA
ATOM     28  H   UNL     1       1.623   1.454   0.627  1.00  0.00     0.211 HD
ENDBRANCH   1  27
BRANCH   1  29
ATOM     29  C   UNL     1       1.761   0.084  -1.375  1.00  0.00     0.115 C 
BRANCH  29  30
ATOM     30  C   UNL     1       1.482  -0.824  -2.595  1.00  0.00     0.063 C 
BRANCH  30  31
ATOM     31  C   UNL     1       1.922  -2.263  -2.448  1.00  0.00    -0.046 A 
ATOM     32  C   UNL     1       1.036  -3.240  -1.979  1.00  0.00     0.004 A 
ATOM     33  C   UNL     1       3.230  -2.641  -2.788  1.00  0.00     0.004 A 
ATOM     34  C   UNL     1       1.455  -4.562  -1.831  1.00  0.00     0.000 A 
ATOM     35  C   UNL     1       3.649  -3.962  -2.635  1.00  0.00     0.000 A 
ATOM     36  C   UNL     1       2.763  -4.921  -2.150  1.00  0.00     0.000 A 
ENDBRANCH  30  31
ENDBRANCH  29  30
BRANCH  29  37
ATOM     37  N   UNL     1       3.192   0.093  -1.034  1.00  0.00    -0.347 N 
ATOM     38  C   UNL     1       3.792   1.197  -0.453  1.00  0.00     0.258 C 
ATOM     39  O   UNL     1       3.162   2.224  -0.221  1.00  0.00    -0.271 OA
ATOM     40  H   UNL     1       3.630  -0.808  -0.888  1.00  0.00     0.163 HD
BRANCH  38  41
ATOM     41  C   UNL     1       5.270   0.995  -0.115  1.00  0.00     0.329 C 
BRANCH  41  42
ATOM     42  O   UNL     1       5.928   2.259  -0.042  1.00  0.00    -0.483 OA
BRANCH  42  43
ATOM     43  C   UNL     1       7.246   2.095   0.308  1.00  0.00     0.125 A 
ATOM     44  C   UNL     1       8.216   2.032  -0.706  1.00  0.00    -0.009 A 
ATOM     45  C   UNL     1       7.606   2.084   1.665  1.00  0.00    -0.009 A 
ATOM     46  C   UNL     1       9.558   1.867  -0.343  1.00  0.00     0.007 A 
ATOM     47  C   UNL     1       8.956   1.915   1.998  1.00  0.00     0.007 A 
ATOM     48  C   UNL     1       9.925   1.800   1.000  1.00  0.00     0.001 A 
ATOM     49  C   UNL     1       7.838   2.141  -2.156  1.00  0.00     0.048 C 
ATOM     50  C   UNL     1       6.581   2.218   2.757  1.00  0.00     0.048 C 
ENDBRANCH  42  43
ENDBRANCH  41  42
ENDBRANCH  38  41
ENDBRANCH  29  37
ENDBRANCH   1  29
TORSDOF 16
