REMARK SMILES FC(F)(F)c1cccc(N2CCN(CCc3nnc4n3CC3CCCC43)CC2)c1
REMARK SMILES IDX 10 1 11 2 12 3 13 4 27 5 28 6 9 7 5 8 6 9 29 10 7 11 8 12
REMARK SMILES IDX 2 13 1 14 3 15 4 16 14 17 15 18 16 19 17 20 20 21 18 22
REMARK SMILES IDX 21 23 19 24 22 25 26 26 23 27 25 28 24 29
REMARK H PARENT
ROOT
ATOM      1  N   UNL     1      -3.674   0.779   0.152  1.00  0.00    -0.369 N 
ATOM      2  C   UNL     1      -3.191   2.134   0.473  1.00  0.00     0.132 C 
ATOM      3  C   UNL     1      -1.725   2.320   0.021  1.00  0.00     0.106 C 
ATOM      4  N   UNL     1      -0.777   1.381   0.663  1.00  0.00    -0.299 NA
ATOM      5  C   UNL     1      -1.389   0.044   0.832  1.00  0.00     0.106 C 
ATOM      6  C   UNL     1      -2.641  -0.253  -0.032  1.00  0.00     0.132 C 
ENDROOT
BRANCH   1   7
ATOM      7  C   UNL     1      -5.016   0.531  -0.076  1.00  0.00     0.037 A 
ATOM      8  C   UNL     1      -6.817  -0.849  -1.049  1.00  0.00     0.058 A 
ATOM      9  C   UNL     1      -7.778   0.026  -0.536  1.00  0.00     0.013 A 
ATOM     10  C   UNL     1      -5.452  -0.581  -0.816  1.00  0.00     0.039 A 
ATOM     11  C   UNL     1      -7.379   1.134   0.202  1.00  0.00     0.003 A 
ATOM     12  C   UNL     1      -6.019   1.376   0.427  1.00  0.00     0.026 A 
BRANCH   8  13
ATOM     13  C   UNL     1      -7.216  -2.047  -1.872  1.00  0.00     0.416 C 
ATOM     14  F   UNL     1      -6.496  -3.163  -1.564  1.00  0.00    -0.166 F 
ATOM     15  F   UNL     1      -7.036  -1.845  -3.206  1.00  0.00    -0.166 F 
ATOM     16  F   UNL     1      -8.524  -2.398  -1.721  1.00  0.00    -0.166 F 
ENDBRANCH   8  13
ENDBRANCH   1   7
BRANCH   4  17
ATOM     17  C   UNL     1       0.494   1.349  -0.082  1.00  0.00     0.092 C 
BRANCH  17  18
ATOM     18  C   UNL     1       1.661   0.850   0.786  1.00  0.00     0.093 C 
BRANCH  18  19
ATOM     19  C   UNL     1       2.929   0.801   0.012  1.00  0.00     0.134 A 
ATOM     20  N   UNL     1       3.386   1.692  -0.858  1.00  0.00    -0.135 NA
ATOM     21  N   UNL     1       3.844  -0.186   0.091  1.00  0.00    -0.314 N 
ATOM     22  N   UNL     1       4.609   1.252  -1.354  1.00  0.00    -0.135 NA
ATOM     23  C   UNL     1       4.018  -1.435   0.791  1.00  0.00     0.129 C 
ATOM     24  C   UNL     1       4.857   0.117  -0.759  1.00  0.00     0.136 A 
ATOM     25  C   UNL     1       5.485  -1.790   0.471  1.00  0.00     0.020 C 
ATOM     26  C   UNL     1       5.914  -0.910  -0.754  1.00  0.00     0.063 C 
ATOM     27  C   UNL     1       6.468  -1.398   1.576  1.00  0.00     0.006 C 
ATOM     28  C   UNL     1       7.306  -0.372  -0.425  1.00  0.00     0.012 C 
ATOM     29  C   UNL     1       7.757  -1.140   0.814  1.00  0.00     0.001 C 
ENDBRANCH  18  19
ENDBRANCH  17  18
ENDBRANCH   4  17
TORSDOF 5
