REMARK SMILES CCOC(=O)O[C@]1(C(=O)OCCl)CC[C@H]2[C@@H]3CCC4=CC(=O)C=C[C@]4(C)[C@H]3[C@@H](O)C[C@@]21C
REMARK SMILES IDX 7 1 13 2 14 3 15 4 16 5 17 6 18 7 19 8 20 9 21 10 22 11
REMARK SMILES IDX 23 12 24 13 25 14 26 15 27 16 28 17 30 18 31 19 32 20 6 21
REMARK SMILES IDX 4 22 5 23 3 24 2 25 1 26 8 27 9 28 10 29 11 30 12 31 29 32
REMARK H PARENT 29 33
ROOT
ATOM      1  C   UNL     1      -2.139  -1.020   0.084  1.00  0.00     0.218 C 
ATOM      2  C   UNL     1      -2.040  -1.512   1.562  1.00  0.00     0.062 C 
ATOM      3  C   UNL     1      -0.573  -1.308   2.002  1.00  0.00     0.009 C 
ATOM      4  C   UNL     1       0.059  -0.516   0.863  1.00  0.00     0.003 C 
ATOM      5  C   UNL     1       1.591  -0.456   0.758  1.00  0.00    -0.000 C 
ATOM      6  C   UNL     1       2.195   0.073   2.073  1.00  0.00     0.009 C 
ATOM      7  C   UNL     1       3.699   0.302   1.977  1.00  0.00     0.032 C 
ATOM      8  C   UNL     1       4.017   1.191   0.802  1.00  0.00    -0.056 C 
ATOM      9  C   UNL     1       4.649   2.364   0.988  1.00  0.00     0.052 C 
ATOM     10  C   UNL     1       4.926   3.287  -0.132  1.00  0.00     0.178 C 
ATOM     11  O   UNL     1       5.505   4.351   0.047  1.00  0.00    -0.290 OA
ATOM     12  C   UNL     1       4.468   2.878  -1.473  1.00  0.00     0.048 C 
ATOM     13  C   UNL     1       3.838   1.711  -1.660  1.00  0.00    -0.012 C 
ATOM     14  C   UNL     1       3.531   0.693  -0.567  1.00  0.00     0.013 C 
ATOM     15  C   UNL     1       4.334  -0.578  -0.925  1.00  0.00     0.021 C 
ATOM     16  C   UNL     1       1.975   0.468  -0.451  1.00  0.00     0.035 C 
ATOM     17  C   UNL     1       1.243   0.053  -1.764  1.00  0.00     0.119 C 
ATOM     18  C   UNL     1      -0.275  -0.180  -1.586  1.00  0.00     0.044 C 
ATOM     19  C   UNL     1      -0.638  -1.088  -0.391  1.00  0.00     0.024 C 
ATOM     20  C   UNL     1      -0.244  -2.563  -0.687  1.00  0.00     0.017 C 
ENDROOT
BRANCH   1  21
ATOM     21  O   UNL     1      -2.540   0.374   0.088  1.00  0.00    -0.415 OA
BRANCH  21  22
ATOM     22  C   UNL     1      -3.833   0.645   0.398  1.00  0.00     0.509 C 
ATOM     23  O   UNL     1      -4.678  -0.181   0.708  1.00  0.00    -0.203 OA
BRANCH  22  24
ATOM     24  O   UNL     1      -4.010   1.986   0.336  1.00  0.00    -0.435 OA
BRANCH  24  25
ATOM     25  C   UNL     1      -5.333   2.419   0.667  1.00  0.00     0.233 C 
ATOM     26  C   UNL     1      -5.379   3.931   0.557  1.00  0.00     0.049 C 
ENDBRANCH  24  25
ENDBRANCH  22  24
ENDBRANCH  21  22
ENDBRANCH   1  21
BRANCH   1  27
ATOM     27  C   UNL     1      -3.055  -1.823  -0.871  1.00  0.00     0.352 C 
ATOM     28  O   UNL     1      -3.480  -1.373  -1.930  1.00  0.00    -0.247 OA
BRANCH  27  29
ATOM     29  O   UNL     1      -3.294  -3.077  -0.416  1.00  0.00    -0.446 OA
BRANCH  29  30
ATOM     30  C   UNL     1      -4.097  -3.902  -1.255  1.00  0.00     0.342 C 
ATOM     31  Cl  UNL     1      -3.169  -5.379  -1.613  1.00  0.00    -0.082 Cl
ENDBRANCH  29  30
ENDBRANCH  27  29
ENDBRANCH   1  27
BRANCH  17  32
ATOM     32  O   UNL     1       1.826  -1.072  -2.406  1.00  0.00    -0.393 OA
ATOM     33  H   UNL     1       2.074  -1.735  -1.744  1.00  0.00     0.210 HD
ENDBRANCH  17  32
TORSDOF 8
