REMARK SMILES CC(C(=O)O)c1ccc(CC2CCCC2=O)cc1
REMARK SMILES IDX 1 1 2 2 3 3 4 4 5 5 6 7 7 8 18 9 8 10 17 11 9 12 10 13 11 14
REMARK SMILES IDX 12 15 15 16 13 17 14 18 16 19
REMARK H PARENT 5 6
ROOT
ATOM      1  C   UNL     1       4.321   1.743  -0.011  1.00  0.00     0.025 C 
ATOM      2  C   UNL     1       3.936   0.390   0.592  1.00  0.00     0.126 C 
ENDROOT
BRANCH   2   3
ATOM      3  C   UNL     1       4.868  -0.694   0.085  1.00  0.00     0.310 C 
ATOM      4  O   UNL     1       5.368  -0.776  -1.026  1.00  0.00    -0.252 OA
BRANCH   3   5
ATOM      5  O   UNL     1       5.115  -1.647   1.010  1.00  0.00    -0.481 OA
ATOM      6  H   UNL     1       5.684  -2.291   0.539  1.00  0.00     0.296 HD
ENDBRANCH   3   5
ENDBRANCH   2   3
BRANCH   2   7
ATOM      7  C   UNL     1       2.480   0.049   0.334  1.00  0.00    -0.034 A 
ATOM      8  C   UNL     1       1.590  -0.080   1.408  1.00  0.00     0.005 A 
ATOM      9  C   UNL     1       1.992  -0.140  -0.967  1.00  0.00     0.005 A 
ATOM     10  C   UNL     1       0.245  -0.390   1.188  1.00  0.00     0.004 A 
ATOM     11  C   UNL     1       0.647  -0.449  -1.187  1.00  0.00     0.004 A 
ATOM     12  C   UNL     1      -0.238  -0.581  -0.110  1.00  0.00    -0.047 A 
BRANCH  12  13
ATOM     13  C   UNL     1      -1.695  -0.900  -0.353  1.00  0.00     0.047 C 
BRANCH  13  14
ATOM     14  C   UNL     1      -2.564   0.362  -0.405  1.00  0.00     0.060 C 
ATOM     15  C   UNL     1      -3.790   0.196  -1.315  1.00  0.00     0.012 C 
ATOM     16  C   UNL     1      -3.240   0.600   0.933  1.00  0.00     0.136 C 
ATOM     17  C   UNL     1      -4.856  -0.436  -0.431  1.00  0.00     0.009 C 
ATOM     18  C   UNL     1      -4.715   0.291   0.897  1.00  0.00     0.076 C 
ATOM     19  O   UNL     1      -2.665   0.999   1.939  1.00  0.00    -0.299 OA
ENDBRANCH  13  14
ENDBRANCH  12  13
ENDBRANCH   2   7
TORSDOF 5
