REMARK SMILES O=[N+]([O-])OC[C@@H](O[N+](=O)[O-])[C@@H](O[N+](=O)[O-])[C@H](O[N+](=O)[O-])[C@@H](CO[N+](=O)[O-])O[N+](=O)[O-]
REMARK SMILES IDX 11 1 6 2 5 3 4 4 2 5 1 6 3 7 7 8 8 9 9 10 10 11 12 12 13 13
REMARK SMILES IDX 14 14 15 15 16 16 17 17 18 18 19 19 20 20 21 21 22 22 23 23
REMARK SMILES IDX 24 24 25 25 26 26 27 27 28 28 29 29 30 30
REMARK H PARENT
ROOT
ATOM      1  C   UNL     1      -0.872  -0.274   0.161  1.00  0.00     0.229 C 
ENDROOT
BRANCH   1   2
ATOM      2  C   UNL     1      -1.384  -0.118  -1.311  1.00  0.00     0.224 C 
BRANCH   2   3
ATOM      3  C   UNL     1      -2.811   0.475  -1.351  1.00  0.00     0.242 C 
BRANCH   3   4
ATOM      4  O   UNL     1      -3.744  -0.476  -0.850  1.00  0.00    -0.311 OA
BRANCH   4   5
ATOM      5  N   UNL     1      -5.079   0.000  -0.881  1.00  0.00     0.294 N 
ATOM      6  O   UNL     1      -5.250   1.155  -1.271  1.00  0.00    -0.109 OA
ATOM      7  O   UNL     1      -5.889  -0.832  -0.482  1.00  0.00    -0.109 OA
ENDBRANCH   4   5
ENDBRANCH   3   4
ENDBRANCH   2   3
BRANCH   2   8
ATOM      8  O   UNL     1      -0.486   0.767  -1.988  1.00  0.00    -0.306 OA
BRANCH   8   9
ATOM      9  N   UNL     1      -0.416   0.557  -3.390  1.00  0.00     0.294 N 
ATOM     10  O   UNL     1       0.471   1.220  -3.918  1.00  0.00    -0.109 OA
ATOM     11  O   UNL     1      -1.223  -0.232  -3.877  1.00  0.00    -0.109 OA
ENDBRANCH   8   9
ENDBRANCH   2   8
ENDBRANCH   1   2
BRANCH   1  12
ATOM     12  O   UNL     1      -1.706  -1.241   0.812  1.00  0.00    -0.306 OA
BRANCH  12  13
ATOM     13  N   UNL     1      -1.819  -1.054   2.214  1.00  0.00     0.294 N 
ATOM     14  O   UNL     1      -1.121  -0.169   2.706  1.00  0.00    -0.109 OA
ATOM     15  O   UNL     1      -2.597  -1.842   2.739  1.00  0.00    -0.109 OA
ENDBRANCH  12  13
ENDBRANCH   1  12
BRANCH   1  16
ATOM     16  C   UNL     1       0.646  -0.692   0.205  1.00  0.00     0.229 C 
BRANCH  16  17
ATOM     17  O   UNL     1       0.848  -1.904   0.946  1.00  0.00    -0.306 OA
BRANCH  17  18
ATOM     18  N   UNL     1       0.668  -3.083   0.175  1.00  0.00     0.294 N 
ATOM     19  O   UNL     1       0.931  -4.103   0.800  1.00  0.00    -0.109 OA
ATOM     20  O   UNL     1       0.270  -2.928  -0.979  1.00  0.00    -0.109 OA
ENDBRANCH  17  18
ENDBRANCH  16  17
BRANCH  16  21
ATOM     21  C   UNL     1       1.526   0.410   0.876  1.00  0.00     0.224 C 
BRANCH  21  22
ATOM     22  C   UNL     1       3.019   0.028   0.792  1.00  0.00     0.242 C 
BRANCH  22  23
ATOM     23  O   UNL     1       3.795   0.996   1.495  1.00  0.00    -0.311 OA
BRANCH  23  24
ATOM     24  N   UNL     1       5.183   0.707   1.463  1.00  0.00     0.294 N 
ATOM     25  O   UNL     1       5.526  -0.305   0.851  1.00  0.00    -0.109 OA
ATOM     26  O   UNL     1       5.858   1.539   2.063  1.00  0.00    -0.109 OA
ENDBRANCH  23  24
ENDBRANCH  22  23
ENDBRANCH  21  22
BRANCH  21  27
ATOM     27  O   UNL     1       1.323   1.625   0.143  1.00  0.00    -0.306 OA
BRANCH  27  28
ATOM     28  N   UNL     1       1.304   2.804   0.933  1.00  0.00     0.294 N 
ATOM     29  O   UNL     1       1.499   2.680   2.139  1.00  0.00    -0.109 OA
ATOM     30  O   UNL     1       1.052   3.803   0.266  1.00  0.00    -0.109 OA
ENDBRANCH  27  28
ENDBRANCH  21  27
ENDBRANCH  16  21
ENDBRANCH   1  16
TORSDOF 17
