REMARK SMILES CCC(C)C(C)C1Nc2cc(Cl)c(S(N)(=O)=O)cc2S(=O)(=O)N1
REMARK SMILES IDX 7 1 8 2 9 3 19 4 18 5 13 6 11 7 12 8 10 9 20 10 21 11 22 12
REMARK SMILES IDX 23 13 5 16 6 17 3 18 4 19 2 20 1 21 14 22 16 23 17 24 15 25
REMARK H PARENT 8 14 23 15 15 26 15 27
ROOT
ATOM      1  C   UNL     1      -0.878  -0.717  -0.637  1.00  0.00     0.165 C 
ATOM      2  N   UNL     1       0.237  -1.597  -0.336  1.00  0.00    -0.368 N 
ATOM      3  C   UNL     1       1.463  -1.111   0.095  1.00  0.00     0.057 A 
ATOM      4  C   UNL     1       1.902   0.185  -0.150  1.00  0.00     0.107 A 
ATOM      5  C   UNL     1       3.178   0.631   0.216  1.00  0.00     0.047 A 
ATOM      6  C   UNL     1       4.061  -0.256   0.839  1.00  0.00     0.102 A 
ATOM      7  C   UNL     1       3.665  -1.573   1.072  1.00  0.00     0.063 A 
ATOM      8  Cl  UNL     1       4.681  -2.758   1.811  1.00  0.00    -0.083 Cl
ATOM      9  C   UNL     1       2.380  -1.991   0.687  1.00  0.00     0.049 A 
ATOM     10  S   UNL     1       0.829   1.303  -0.969  1.00  0.00     0.244 S 
ATOM     11  O   UNL     1       0.335   2.220   0.032  1.00  0.00    -0.207 OA
ATOM     12  O   UNL     1       1.510   1.771  -2.156  1.00  0.00    -0.207 OA
ATOM     13  N   UNL     1      -0.419   0.337  -1.510  1.00  0.00    -0.190 NA
ATOM     14  H   UNL     1      -0.049  -2.464   0.113  1.00  0.00     0.162 HD
ATOM     15  H   UNL     1      -0.239   0.035  -2.465  1.00  0.00     0.143 HD
ENDROOT
BRANCH   1  16
ATOM     16  C   UNL     1      -1.668  -0.236   0.612  1.00  0.00     0.027 C 
ATOM     17  C   UNL     1      -1.917  -1.405   1.591  1.00  0.00     0.011 C 
BRANCH  16  18
ATOM     18  C   UNL     1      -3.045   0.455   0.298  1.00  0.00    -0.008 C 
ATOM     19  C   UNL     1      -2.878   1.886  -0.226  1.00  0.00     0.008 C 
BRANCH  18  20
ATOM     20  C   UNL     1      -3.953  -0.376  -0.636  1.00  0.00     0.000 C 
ATOM     21  C   UNL     1      -5.393   0.120  -0.681  1.00  0.00     0.004 C 
ENDBRANCH  18  20
ENDBRANCH  16  18
ENDBRANCH   1  16
BRANCH   6  22
ATOM     22  S   UNL     1       5.670   0.277   1.319  1.00  0.00     0.239 S 
ATOM     23  O   UNL     1       5.746   0.279   2.760  1.00  0.00    -0.207 OA
ATOM     24  O   UNL     1       6.643  -0.366   0.468  1.00  0.00    -0.207 OA
BRANCH  22  25
ATOM     25  N   UNL     1       5.731   1.903   0.886  1.00  0.00    -0.225 NA
ATOM     26  H   UNL     1       6.466   2.038   0.188  1.00  0.00     0.137 HD
ATOM     27  H   UNL     1       5.867   2.469   1.726  1.00  0.00     0.137 HD
ENDBRANCH  22  25
ENDBRANCH   6  22
TORSDOF 5
