REMARK SMILES Cc1ccc(Cl)c(Nc2ccccc2C(=O)O)c1Cl
REMARK SMILES IDX 9 1 10 2 11 3 12 4 13 5 14 6 8 7 7 9 2 10 3 11 18 12 4 13
REMARK SMILES IDX 5 14 1 15 19 16 6 17 15 18 16 19 17 20
REMARK H PARENT 8 8 17 21
ROOT
ATOM      1  C   UNL     1      -1.678  -0.667  -0.091  1.00  0.00     0.053 A 
ATOM      2  C   UNL     1      -2.434  -1.096  -1.195  1.00  0.00     0.027 A 
ATOM      3  C   UNL     1      -3.559  -0.385  -1.617  1.00  0.00     0.002 A 
ATOM      4  C   UNL     1      -3.953   0.762  -0.934  1.00  0.00     0.001 A 
ATOM      5  C   UNL     1      -3.228   1.192   0.178  1.00  0.00     0.018 A 
ATOM      6  C   UNL     1      -2.096   0.480   0.611  1.00  0.00     0.083 A 
ENDROOT
BRANCH   1   7
ATOM      7  N   UNL     1      -0.532  -1.436   0.250  1.00  0.00    -0.352 N 
ATOM      8  H   UNL     1      -0.653  -1.727   1.231  1.00  0.00     0.167 HD
BRANCH   7   9
ATOM      9  C   UNL     1       0.843  -1.015   0.158  1.00  0.00     0.077 A 
ATOM     10  C   UNL     1       2.760   0.149  -0.869  1.00  0.00    -0.030 A 
ATOM     11  C   UNL     1       3.619  -0.424   0.079  1.00  0.00     0.006 A 
ATOM     12  C   UNL     1       1.377  -0.164  -0.841  1.00  0.00     0.069 A 
ATOM     13  C   UNL     1       3.125  -1.303   1.035  1.00  0.00     0.023 A 
ATOM     14  C   UNL     1       1.763  -1.602   1.063  1.00  0.00     0.066 A 
ATOM     15  C   UNL     1       3.353   1.070  -1.905  1.00  0.00     0.046 C 
ATOM     16  Cl  UNL     1       0.384   0.516  -2.096  1.00  0.00    -0.082 Cl
ATOM     17  Cl  UNL     1       1.225  -2.726   2.272  1.00  0.00    -0.082 Cl
ENDBRANCH   7   9
ENDBRANCH   1   7
BRANCH   6  18
ATOM     18  C   UNL     1      -1.396   0.912   1.843  1.00  0.00     0.337 C 
ATOM     19  O   UNL     1      -0.758   0.201   2.598  1.00  0.00    -0.246 OA
BRANCH  18  20
ATOM     20  O   UNL     1      -1.533   2.230   2.079  1.00  0.00    -0.478 OA
ATOM     21  H   UNL     1      -1.019   2.377   2.901  1.00  0.00     0.297 HD
ENDBRANCH  18  20
ENDBRANCH   6  18
TORSDOF 4
