REMARK SMILES C=C1c2c(Cl)ccc(O)c2C(=O)C2=C(O)[C@]3(O)C(=O)C(C(N)=O)=C(O)[C@@H](N(C)C)[C@@H]3[C@@H](O)[C@H]12
REMARK SMILES IDX 26 1 30 2 31 3 33 4 2 5 1 6 3 7 10 8 8 9 7 10 6 11 4 12 5 13
REMARK SMILES IDX 11 14 12 15 13 16 14 17 16 18 18 19 19 20 20 21 24 22 27 23
REMARK SMILES IDX 28 24 29 25 25 26 32 28 17 30 21 32 22 33 23 34 15 37 9 39
REMARK H PARENT 25 27 32 29 17 31 22 35 22 36 15 38 9 40
ROOT
ATOM      1  C   UNL     1      -2.459  -1.085   0.017  1.00  0.00     0.132 C 
ATOM      2  C   UNL     1      -1.041  -0.613  -0.463  1.00  0.00     0.091 C 
ATOM      3  C   UNL     1       0.048  -0.910   0.599  1.00  0.00     0.135 C 
ATOM      4  C   UNL     1       1.475  -0.569   0.077  1.00  0.00     0.086 C 
ATOM      5  C   UNL     1       2.585  -0.560   1.122  1.00  0.00    -0.035 C 
ATOM      6  C   UNL     1       2.417  -0.593   2.455  1.00  0.00     0.014 C 
ATOM      7  C   UNL     1       3.938  -0.381   0.529  1.00  0.00     0.011 A 
ATOM      8  C   UNL     1       4.066   0.566  -0.508  1.00  0.00     0.073 A 
ATOM      9  C   UNL     1       5.323   0.842  -1.072  1.00  0.00     0.127 A 
ATOM     10  C   UNL     1       6.453   0.151  -0.654  1.00  0.00     0.048 A 
ATOM     11  C   UNL     1       6.333  -0.832   0.323  1.00  0.00     0.025 A 
ATOM     12  C   UNL     1       5.089  -1.105   0.906  1.00  0.00     0.049 A 
ATOM     13  Cl  UNL     1       5.049  -2.421   2.032  1.00  0.00    -0.084 Cl
ATOM     14  C   UNL     1       2.866   1.271  -1.027  1.00  0.00     0.197 C 
ATOM     15  O   UNL     1       2.997   2.263  -1.745  1.00  0.00    -0.289 OA
ATOM     16  C   UNL     1       1.514   0.728  -0.695  1.00  0.00     0.051 C 
ATOM     17  C   UNL     1       0.407   1.379  -1.107  1.00  0.00     0.140 C 
ATOM     18  C   UNL     1      -1.001   0.873  -0.844  1.00  0.00     0.192 C 
ATOM     19  C   UNL     1      -1.659   1.687   0.281  1.00  0.00     0.211 C 
ATOM     20  O   UNL     1      -1.095   2.589   0.903  1.00  0.00    -0.290 OA
ATOM     21  C   UNL     1      -3.060   1.324   0.612  1.00  0.00     0.125 C 
ATOM     22  C   UNL     1      -3.416   0.029   0.464  1.00  0.00     0.126 C 
ENDROOT
BRANCH   1  23
ATOM     23  N   UNL     1      -2.968  -2.096  -0.947  1.00  0.00    -0.299 NA
ATOM     24  C   UNL     1      -3.574  -1.530  -2.151  1.00  0.00     0.105 C 
ATOM     25  C   UNL     1      -3.870  -3.073  -0.337  1.00  0.00     0.105 C 
ENDBRANCH   1  23
BRANCH  22  26
ATOM     26  O   UNL     1      -4.687  -0.427   0.807  1.00  0.00    -0.510 OA
ATOM     27  H   UNL     1      -5.253   0.335   1.069  1.00  0.00     0.293 HD
ENDBRANCH  22  26
BRANCH   3  28
ATOM     28  O   UNL     1       0.012  -2.293   0.970  1.00  0.00    -0.392 OA
ATOM     29  H   UNL     1      -0.143  -2.835   0.174  1.00  0.00     0.211 HD
ENDBRANCH   3  28
BRANCH  18  30
ATOM     30  O   UNL     1      -1.744   1.095  -2.046  1.00  0.00    -0.374 OA
ATOM     31  H   UNL     1      -1.372   1.913  -2.438  1.00  0.00     0.212 HD
ENDBRANCH  18  30
BRANCH  21  32
ATOM     32  C   UNL     1      -4.032   2.323   1.136  1.00  0.00     0.255 C 
ATOM     33  N   UNL     1      -3.568   3.577   1.363  1.00  0.00    -0.365 N 
ATOM     34  O   UNL     1      -5.204   2.031   1.364  1.00  0.00    -0.269 OA
ATOM     35  H   UNL     1      -4.186   4.249   1.797  1.00  0.00     0.159 HD
ATOM     36  H   UNL     1      -2.573   3.792   1.328  1.00  0.00     0.159 HD
ENDBRANCH  21  32
BRANCH  17  37
ATOM     37  O   UNL     1       0.442   2.536  -1.880  1.00  0.00    -0.508 OA
ATOM     38  H   UNL     1       1.383   2.799  -2.007  1.00  0.00     0.293 HD
ENDBRANCH  17  37
BRANCH   9  39
ATOM     39  O   UNL     1       5.522   1.774  -2.054  1.00  0.00    -0.507 OA
ATOM     40  H   UNL     1       4.679   2.256  -2.205  1.00  0.00     0.293 HD
ENDBRANCH   9  39
TORSDOF 7
