REMARK SMILES COc1ccc(C(OCCN(C)C)c2ccccc2)cc1
REMARK SMILES IDX 8 1 7 2 6 3 3 4 4 5 21 6 5 7 20 8 2 9 1 10 14 11 15 12 19 13
REMARK SMILES IDX 16 14 18 15 17 16 9 17 10 18 11 19 12 20 13 21
REMARK H PARENT
ROOT
ATOM      1  O   UNL     1       0.873  -0.523  -0.830  1.00  0.00    -0.367 OA
ENDROOT
BRANCH   1   2
ATOM      2  C   UNL     1      -0.145   0.479  -0.989  1.00  0.00     0.178 C 
BRANCH   2   3
ATOM      3  C   UNL     1      -1.514  -0.112  -0.665  1.00  0.00    -0.015 A 
ATOM      4  C   UNL     1      -4.074  -1.158  -0.076  1.00  0.00     0.118 A 
ATOM      5  C   UNL     1      -3.941   0.044  -0.774  1.00  0.00     0.047 A 
ATOM      6  C   UNL     1      -2.927  -1.837   0.331  1.00  0.00     0.047 A 
ATOM      7  C   UNL     1      -2.677   0.564  -1.066  1.00  0.00     0.010 A 
ATOM      8  C   UNL     1      -1.659  -1.317   0.040  1.00  0.00     0.010 A 
BRANCH   4   9
ATOM      9  O   UNL     1      -5.365  -1.553   0.142  1.00  0.00    -0.497 OA
ATOM     10  C   UNL     1      -5.551  -2.768   0.857  1.00  0.00     0.278 C 
ENDBRANCH   4   9
ENDBRANCH   2   3
BRANCH   2  11
ATOM     11  C   UNL     1       0.182   1.691  -0.129  1.00  0.00    -0.015 A 
ATOM     12  C   UNL     1       0.416   1.560   1.249  1.00  0.00     0.007 A 
ATOM     13  C   UNL     1       0.256   2.970  -0.706  1.00  0.00     0.007 A 
ATOM     14  C   UNL     1       0.720   2.676   2.030  1.00  0.00     0.000 A 
ATOM     15  C   UNL     1       0.560   4.085   0.077  1.00  0.00     0.000 A 
ATOM     16  C   UNL     1       0.792   3.938   1.443  1.00  0.00     0.000 A 
ENDBRANCH   2  11
ENDBRANCH   1   2
BRANCH   1  17
ATOM     17  C   UNL     1       2.031  -0.269  -1.626  1.00  0.00     0.177 C 
BRANCH  17  18
ATOM     18  C   UNL     1       3.087  -1.374  -1.423  1.00  0.00     0.112 C 
BRANCH  18  19
ATOM     19  N   UNL     1       3.807  -1.443  -0.137  1.00  0.00    -0.307 NA
ATOM     20  C   UNL     1       2.938  -1.838   0.969  1.00  0.00     0.105 C 
ATOM     21  C   UNL     1       4.517  -0.208   0.182  1.00  0.00     0.105 C 
ENDBRANCH  18  19
ENDBRANCH  17  18
ENDBRANCH   1  17
TORSDOF 7
