REMARK SMILES O[C@@H](c1cc(C(F)(F)F)nc2c(C(F)(F)F)cccc12)[C@H]1CCCCN1
REMARK SMILES IDX 3 1 4 2 5 3 10 4 11 5 12 6 17 7 18 8 19 9 20 10 2 11 1 12
REMARK SMILES IDX 21 14 22 15 26 16 23 17 25 18 24 19 6 21 7 22 8 23 9 24
REMARK SMILES IDX 13 25 14 26 15 27 16 28
REMARK H PARENT 1 13 26 20
ROOT
ATOM      1  C   UNL     1       0.493   0.063  -0.767  1.00  0.00    -0.006 A 
ATOM      2  C   UNL     1       0.866  -1.164  -1.338  1.00  0.00     0.040 A 
ATOM      3  C   UNL     1       2.110  -1.709  -1.053  1.00  0.00     0.145 A 
ATOM      4  N   UNL     1       2.987  -1.074  -0.233  1.00  0.00    -0.243 NA
ATOM      5  C   UNL     1       2.665   0.104   0.327  1.00  0.00     0.083 A 
ATOM      6  C   UNL     1       3.593   0.725   1.163  1.00  0.00     0.082 A 
ATOM      7  C   UNL     1       3.307   1.963   1.765  1.00  0.00     0.015 A 
ATOM      8  C   UNL     1       2.095   2.589   1.532  1.00  0.00     0.001 A 
ATOM      9  C   UNL     1       1.161   1.979   0.701  1.00  0.00     0.011 A 
ATOM     10  C   UNL     1       1.415   0.729   0.087  1.00  0.00     0.007 A 
ENDROOT
BRANCH   1  11
ATOM     11  C   UNL     1      -0.899   0.592  -1.103  1.00  0.00     0.162 C 
BRANCH  11  12
ATOM     12  O   UNL     1      -0.802   1.915  -1.638  1.00  0.00    -0.387 OA
ATOM     13  H   UNL     1       0.032   1.972  -2.136  1.00  0.00     0.211 HD
ENDBRANCH  11  12
BRANCH  11  14
ATOM     14  C   UNL     1      -1.929   0.532   0.076  1.00  0.00     0.087 C 
ATOM     15  C   UNL     1      -3.270   1.169  -0.363  1.00  0.00     0.022 C 
ATOM     16  N   UNL     1      -2.105  -0.818   0.658  1.00  0.00    -0.311 NA
ATOM     17  C   UNL     1      -4.405   0.778   0.576  1.00  0.00     0.003 C 
ATOM     18  C   UNL     1      -3.308  -1.493   0.194  1.00  0.00     0.081 C 
ATOM     19  C   UNL     1      -4.558  -0.742   0.653  1.00  0.00     0.015 C 
ATOM     20  H   UNL     1      -1.279  -1.396   0.520  1.00  0.00     0.123 HD
ENDBRANCH  11  14
ENDBRANCH   1  11
BRANCH   3  21
ATOM     21  C   UNL     1       2.498  -3.038  -1.690  1.00  0.00     0.433 C 
ATOM     22  F   UNL     1       3.645  -3.587  -1.204  1.00  0.00    -0.165 F 
ATOM     23  F   UNL     1       2.674  -2.931  -3.040  1.00  0.00    -0.165 F 
ATOM     24  F   UNL     1       1.532  -3.990  -1.526  1.00  0.00    -0.165 F 
ENDBRANCH   3  21
BRANCH   6  25
ATOM     25  C   UNL     1       4.918   0.056   1.419  1.00  0.00     0.418 C 
ATOM     26  F   UNL     1       5.665  -0.121   0.294  1.00  0.00    -0.166 F 
ATOM     27  F   UNL     1       5.718   0.783   2.259  1.00  0.00    -0.166 F 
ATOM     28  F   UNL     1       4.808  -1.165   2.014  1.00  0.00    -0.166 F 
ENDBRANCH   6  25
TORSDOF 5
