REMARK SMILES CN(CC1(C)CCCO1)S(=O)(=O)c1ccc(Cl)c(S(N)(=O)=O)c1
REMARK SMILES IDX 10 1 11 2 12 3 2 4 1 5 3 6 4 7 6 8 9 9 7 10 8 11 5 12 13 13
REMARK SMILES IDX 23 14 14 15 18 16 15 17 16 18 17 19 19 20 21 21 22 22 20 23
REMARK H PARENT 20 24 20 25
ROOT
ATOM      1  S   UNL     1       0.334  -2.044   0.703  1.00  0.00     0.242 S 
ATOM      2  O   UNL     1       0.305  -1.798   2.129  1.00  0.00    -0.207 OA
ATOM      3  O   UNL     1      -0.084  -3.312   0.144  1.00  0.00    -0.207 OA
ENDROOT
BRANCH   1   4
ATOM      4  N   UNL     1      -0.560  -0.818  -0.080  1.00  0.00    -0.198 NA
ATOM      5  C   UNL     1      -0.586  -0.906  -1.564  1.00  0.00     0.124 C 
BRANCH   4   6
ATOM      6  C   UNL     1      -1.934  -0.625   0.500  1.00  0.00     0.137 C 
BRANCH   6   7
ATOM      7  C   UNL     1      -2.500   0.804   0.262  1.00  0.00     0.079 C 
ATOM      8  C   UNL     1      -3.822   0.992   1.018  1.00  0.00     0.039 C 
ATOM      9  O   UNL     1      -2.839   0.963  -1.137  1.00  0.00    -0.374 OA
ATOM     10  C   UNL     1      -4.847   0.499   0.027  1.00  0.00     0.031 C 
ATOM     11  C   UNL     1      -4.266   0.981  -1.282  1.00  0.00     0.161 C 
ATOM     12  C   UNL     1      -1.492   1.886   0.652  1.00  0.00     0.044 C 
ENDBRANCH   6   7
ENDBRANCH   4   6
ENDBRANCH   1   4
BRANCH   1  13
ATOM     13  C   UNL     1       1.998  -1.710   0.171  1.00  0.00     0.084 A 
ATOM     14  C   UNL     1       2.551  -0.454   0.440  1.00  0.00     0.045 A 
ATOM     15  C   UNL     1       2.732  -2.688  -0.500  1.00  0.00     0.023 A 
ATOM     16  C   UNL     1       3.858  -0.172   0.020  1.00  0.00     0.102 A 
ATOM     17  C   UNL     1       4.034  -2.400  -0.912  1.00  0.00     0.023 A 
ATOM     18  C   UNL     1       4.603  -1.144  -0.657  1.00  0.00     0.061 A 
ATOM     19  Cl  UNL     1       6.216  -0.891  -1.217  1.00  0.00    -0.083 Cl
BRANCH  16  20
ATOM     20  S   UNL     1       4.568   1.409   0.338  1.00  0.00     0.239 S 
ATOM     21  O   UNL     1       4.712   2.112  -0.914  1.00  0.00    -0.207 OA
ATOM     22  O   UNL     1       5.636   1.257   1.298  1.00  0.00    -0.207 OA
BRANCH  20  23
ATOM     23  N   UNL     1       3.374   2.261   1.166  1.00  0.00    -0.225 NA
ATOM     24  H   UNL     1       3.111   3.082   0.617  1.00  0.00     0.137 HD
ATOM     25  H   UNL     1       3.720   2.495   2.099  1.00  0.00     0.137 HD
ENDBRANCH  20  23
ENDBRANCH  16  20
ENDBRANCH   1  13
TORSDOF 6
