REMARK SMILES CC(O)(CC(=O)O)CC(=O)O
REMARK SMILES IDX 1 1 2 2 3 3 4 5 5 6 6 7 7 8 8 10 9 11 10 12 11 13
REMARK H PARENT 3 4 7 9 11 14
ROOT
ATOM      1  C   UNL     1       0.387  -1.901  -0.828  1.00  0.00     0.043 C 
ATOM      2  C   UNL     1      -0.334  -0.710  -0.174  1.00  0.00     0.083 C 
ENDROOT
BRANCH   2   3
ATOM      3  O   UNL     1      -1.586  -1.226   0.322  1.00  0.00    -0.389 OA
ATOM      4  H   UNL     1      -1.397  -1.941   0.955  1.00  0.00     0.211 HD
ENDBRANCH   2   3
BRANCH   2   5
ATOM      5  C   UNL     1      -0.679   0.322  -1.263  1.00  0.00     0.158 C 
BRANCH   5   6
ATOM      6  C   UNL     1      -1.318   1.581  -0.745  1.00  0.00     0.306 C 
ATOM      7  O   UNL     1      -0.936   2.270   0.187  1.00  0.00    -0.252 OA
BRANCH   6   8
ATOM      8  O   UNL     1      -2.382   1.965  -1.478  1.00  0.00    -0.481 OA
ATOM      9  H   UNL     1      -2.687   2.788  -1.043  1.00  0.00     0.296 HD
ENDBRANCH   6   8
ENDBRANCH   5   6
ENDBRANCH   2   5
BRANCH   2  10
ATOM     10  C   UNL     1       0.463  -0.192   1.037  1.00  0.00     0.158 C 
BRANCH  10  11
ATOM     11  C   UNL     1       1.729   0.546   0.699  1.00  0.00     0.306 C 
ATOM     12  O   UNL     1       2.235   0.695  -0.399  1.00  0.00    -0.252 OA
BRANCH  11  13
ATOM     13  O   UNL     1       2.330   1.041   1.800  1.00  0.00    -0.481 OA
ATOM     14  H   UNL     1       3.112   1.520   1.456  1.00  0.00     0.296 HD
ENDBRANCH  11  13
ENDBRANCH  10  11
ENDBRANCH   2  10
TORSDOF 7
