REMARK SMILES CCOC(=O)[C@H](Cc1ccc(F)cc1)NC(=O)[C@@H](N)Cc1ccc(N(CCCl)CCCl)cc1
REMARK SMILES IDX 18 1 16 2 15 3 17 4 6 6 4 7 5 8 3 9 2 10 1 11 7 12 8 13 9 14
REMARK SMILES IDX 14 15 10 16 13 17 11 18 12 19 20 20 21 21 22 22 33 23 23 24
REMARK SMILES IDX 32 25 24 26 25 27 26 28 27 29 28 30 29 31 30 32 31 33 19 34
REMARK H PARENT 15 5 19 35 19 36
ROOT
ATOM      1  C   UNL     1      -0.264  -1.057  -0.232  1.00  0.00     0.145 C 
ENDROOT
BRANCH   1   2
ATOM      2  C   UNL     1      -1.695  -1.378   0.232  1.00  0.00     0.237 C 
ATOM      3  N   UNL     1      -2.634  -0.501  -0.268  1.00  0.00    -0.341 N 
ATOM      4  O   UNL     1      -1.960  -2.299   0.997  1.00  0.00    -0.273 OA
ATOM      5  H   UNL     1      -2.311  -0.037  -1.117  1.00  0.00     0.164 HD
BRANCH   3   6
ATOM      6  C   UNL     1      -4.063  -0.781  -0.134  1.00  0.00     0.196 C 
BRANCH   6   7
ATOM      7  C   UNL     1      -4.478  -1.732  -1.260  1.00  0.00     0.328 C 
ATOM      8  O   UNL     1      -3.903  -1.828  -2.339  1.00  0.00    -0.250 OA
BRANCH   7   9
ATOM      9  O   UNL     1      -5.601  -2.422  -0.905  1.00  0.00    -0.464 OA
BRANCH   9  10
ATOM     10  C   UNL     1      -6.091  -3.360  -1.874  1.00  0.00     0.229 C 
ATOM     11  C   UNL     1      -5.379  -4.691  -1.722  1.00  0.00     0.049 C 
ENDBRANCH   9  10
ENDBRANCH   7   9
ENDBRANCH   6   7
BRANCH   6  12
ATOM     12  C   UNL     1      -4.905   0.495  -0.244  1.00  0.00     0.072 C 
BRANCH  12  13
ATOM     13  C   UNL     1      -4.689   1.447   0.911  1.00  0.00    -0.045 A 
ATOM     14  C   UNL     1      -3.827   2.547   0.774  1.00  0.00     0.007 A 
ATOM     15  C   UNL     1      -5.331   1.228   2.140  1.00  0.00     0.007 A 
ATOM     16  C   UNL     1      -3.617   3.415   1.846  1.00  0.00     0.039 A 
ATOM     17  C   UNL     1      -5.119   2.098   3.210  1.00  0.00     0.039 A 
ATOM     18  C   UNL     1      -4.265   3.183   3.053  1.00  0.00     0.123 A 
ATOM     19  F   UNL     1      -4.063   4.018   4.081  1.00  0.00    -0.207 F 
ENDBRANCH  12  13
ENDBRANCH   6  12
ENDBRANCH   3   6
ENDBRANCH   1   2
BRANCH   1  20
ATOM     20  C   UNL     1       0.356  -0.055   0.756  1.00  0.00     0.064 C 
BRANCH  20  21
ATOM     21  C   UNL     1       1.828   0.180   0.517  1.00  0.00    -0.046 A 
ATOM     22  C   UNL     1       2.775  -0.768   0.897  1.00  0.00     0.006 A 
ATOM     23  C   UNL     1       2.276   1.342  -0.107  1.00  0.00     0.006 A 
ATOM     24  C   UNL     1       4.140  -0.553   0.653  1.00  0.00     0.026 A 
ATOM     25  C   UNL     1       3.645   1.545  -0.343  1.00  0.00     0.026 A 
ATOM     26  C   UNL     1       4.626   0.608   0.026  1.00  0.00     0.037 A 
BRANCH  26  27
ATOM     27  N   UNL     1       5.982   0.813  -0.212  1.00  0.00    -0.369 N 
BRANCH  27  28
ATOM     28  C   UNL     1       6.482   1.984  -0.959  1.00  0.00     0.132 C 
BRANCH  28  29
ATOM     29  C   UNL     1       6.315   1.840  -2.476  1.00  0.00     0.131 C 
ATOM     30  Cl  UNL     1       7.436   0.638  -3.169  1.00  0.00    -0.125 Cl
ENDBRANCH  28  29
ENDBRANCH  27  28
BRANCH  27  31
ATOM     31  C   UNL     1       7.012  -0.119   0.291  1.00  0.00     0.132 C 
BRANCH  31  32
ATOM     32  C   UNL     1       7.312   0.130   1.770  1.00  0.00     0.131 C 
ATOM     33  Cl  UNL     1       8.585  -0.974   2.349  1.00  0.00    -0.125 Cl
ENDBRANCH  31  32
ENDBRANCH  27  31
ENDBRANCH  26  27
ENDBRANCH  20  21
ENDBRANCH   1  20
BRANCH   1  34
ATOM     34  N   UNL     1      -0.316  -0.513  -1.621  1.00  0.00    -0.320 NA
ATOM     35  H   UNL     1       0.646  -0.320  -1.911  1.00  0.00     0.119 HD
ATOM     36  H   UNL     1      -0.633  -1.265  -2.238  1.00  0.00     0.119 HD
ENDBRANCH   1  34
TORSDOF 15
