REMARK SMILES Cc1cccc(C)c1NC(=O)C1CCCCN1C
REMARK SMILES IDX 10 1 11 2 9 3 12 5 17 6 16 7 15 8 13 9 14 10 18 11 8 12 2 13
REMARK SMILES IDX 6 14 3 15 5 16 4 17 1 18 7 19
REMARK H PARENT 9 4
ROOT
ATOM      1  C   UNL     1      -0.292   0.425   0.320  1.00  0.00     0.241 C 
ATOM      2  O   UNL     1      -0.260   0.378   1.547  1.00  0.00    -0.273 OA
ATOM      3  N   UNL     1       0.835   0.439  -0.502  1.00  0.00    -0.324 N 
ATOM      4  H   UNL     1       0.702   0.929  -1.375  1.00  0.00     0.170 HD
ENDROOT
BRANCH   1   5
ATOM      5  C   UNL     1      -1.613   0.503  -0.511  1.00  0.00     0.146 C 
ATOM      6  N   UNL     1      -2.761   0.925   0.320  1.00  0.00    -0.295 NA
ATOM      7  C   UNL     1      -3.223  -0.117   1.254  1.00  0.00     0.085 C 
ATOM      8  C   UNL     1      -2.784  -1.550   0.932  1.00  0.00     0.016 C 
ATOM      9  C   UNL     1      -1.860  -0.801  -1.295  1.00  0.00     0.029 C 
ATOM     10  C   UNL     1      -2.760  -1.802  -0.566  1.00  0.00     0.003 C 
ATOM     11  C   UNL     1      -3.861   1.449  -0.487  1.00  0.00     0.106 C 
ENDBRANCH   1   5
BRANCH   3  12
ATOM     12  C   UNL     1       2.178   0.306  -0.067  1.00  0.00     0.047 A 
ATOM     13  C   UNL     1       3.151   1.132  -0.685  1.00  0.00    -0.027 A 
ATOM     14  C   UNL     1       2.588  -0.649   0.889  1.00  0.00    -0.027 A 
ATOM     15  C   UNL     1       4.494   1.047  -0.282  1.00  0.00     0.005 A 
ATOM     16  C   UNL     1       3.937  -0.686   1.287  1.00  0.00     0.005 A 
ATOM     17  C   UNL     1       4.882   0.155   0.710  1.00  0.00     0.001 A 
ATOM     18  C   UNL     1       2.797   2.143  -1.745  1.00  0.00     0.046 C 
ATOM     19  C   UNL     1       1.681  -1.685   1.499  1.00  0.00     0.046 C 
ENDBRANCH   3  12
TORSDOF 2
