REMARK SMILES CCCNC(C)(C)COC(=O)c1ccccc1
REMARK SMILES IDX 5 1 6 2 7 3 4 4 3 6 2 7 1 8 8 9 9 10 10 11 11 12 12 13 13 14
REMARK SMILES IDX 17 15 14 16 16 17 15 18
REMARK H PARENT 4 5
ROOT
ATOM      1  C   UNL     1      -1.062  -0.078  -0.199  1.00  0.00     0.047 C 
ATOM      2  C   UNL     1      -0.782  -1.269  -1.135  1.00  0.00     0.031 C 
ATOM      3  C   UNL     1      -0.788   1.234  -0.959  1.00  0.00     0.031 C 
ENDROOT
BRANCH   1   4
ATOM      4  N   UNL     1      -2.447  -0.095   0.328  1.00  0.00    -0.309 NA
ATOM      5  H   UNL     1      -2.603   0.748   0.884  1.00  0.00     0.123 HD
BRANCH   4   6
ATOM      6  C   UNL     1      -3.521  -0.226  -0.655  1.00  0.00     0.081 C 
BRANCH   6   7
ATOM      7  C   UNL     1      -4.894  -0.135   0.022  1.00  0.00     0.012 C 
ATOM      8  C   UNL     1      -5.155  -1.265   1.009  1.00  0.00     0.005 C 
ENDBRANCH   6   7
ENDBRANCH   4   6
ENDBRANCH   1   4
BRANCH   1   9
ATOM      9  C   UNL     1      -0.119  -0.178   1.039  1.00  0.00     0.255 C 
BRANCH   9  10
ATOM     10  O   UNL     1       1.272  -0.222   0.666  1.00  0.00    -0.460 OA
BRANCH  10  11
ATOM     11  C   UNL     1       1.994   0.906   0.870  1.00  0.00     0.338 C 
ATOM     12  O   UNL     1       1.571   1.960   1.316  1.00  0.00    -0.246 OA
BRANCH  11  13
ATOM     13  C   UNL     1       3.408   0.701   0.453  1.00  0.00     0.060 A 
ATOM     14  C   UNL     1       3.873  -0.519  -0.060  1.00  0.00     0.015 A 
ATOM     15  C   UNL     1       4.298   1.776   0.582  1.00  0.00     0.015 A 
ATOM     16  C   UNL     1       5.211  -0.656  -0.438  1.00  0.00     0.001 A 
ATOM     17  C   UNL     1       5.635   1.634   0.203  1.00  0.00     0.001 A 
ATOM     18  C   UNL     1       6.089   0.419  -0.307  1.00  0.00     0.000 A 
ENDBRANCH  11  13
ENDBRANCH  10  11
ENDBRANCH   9  10
ENDBRANCH   1   9
TORSDOF 7
