REMARK SMILES COCC1CN=C(c2ccccc2Cl)c2cc(Br)ccc2N1C
REMARK SMILES IDX 22 1 23 2 4 3 3 5 2 6 1 7 21 8 20 9 15 10 19 11 16 12 17 13
REMARK SMILES IDX 18 14 7 15 6 16 8 17 13 18 9 19 12 20 10 21 11 22 14 23 5 24
REMARK H PARENT
REMARK Flexibility Score:   53.900
ROOT
ATOM      1  N   UNL     1       1.446  -0.365  -0.653  1.00  0.00    -0.367 N 
ATOM      2  C   UNL     1       2.510  -0.911  -1.484  1.00  0.00     0.144 C 
ENDROOT
BRANCH   1   3
ATOM      3  C   UNL     1       1.731   0.732   0.313  1.00  0.00     0.129 CG0
ATOM      4  G   UNL     1       0.853   1.933  -0.045  1.00  0.00     0.000 G0
BRANCH   3   5
ATOM      5  C   UNL     1       3.207   1.205   0.353  1.00  0.00     0.186 C 
BRANCH   5   6
ATOM      6  O   UNL     1       4.056   0.184   0.891  1.00  0.00    -0.382 OA
ATOM      7  C   UNL     1       5.414   0.600   0.937  1.00  0.00     0.195 C 
ENDBRANCH   5   6
ENDBRANCH   3   5
ENDBRANCH   1   3
BRANCH   1   8
ATOM      8  C   UNL     1       0.477  -1.234  -0.126  1.00  0.00     0.046 A 
ATOM      9  C   UNL     1       0.758  -2.604   0.060  1.00  0.00     0.028 A 
ATOM     10  C   UNL     1      -0.788  -0.758   0.288  1.00  0.00     0.025 A 
ATOM     11  C   UNL     1      -0.151  -3.470   0.671  1.00  0.00     0.018 A 
ATOM     12  C   UNL     1      -1.685  -1.635   0.937  1.00  0.00     0.028 A 
ATOM     13  C   UNL     1      -1.365  -2.977   1.119  1.00  0.00     0.018 A 
ATOM     14  Br  UNL     1      -2.594  -4.131   1.973  1.00  0.00    -0.051 Br
BRANCH  10  15
ATOM     15  C   UNL     1      -1.264   0.643   0.009  1.00  0.00     0.076 C 
ATOM     16  N   UNL     1      -0.586   1.727  -0.094  1.00  0.00    -0.282 NA
BRANCH  15  17
ATOM     17  C   UNL     1      -2.737   0.842  -0.174  1.00  0.00     0.019 A 
ATOM     18  C   UNL     1      -3.451   0.267  -1.233  1.00  0.00     0.050 A 
ATOM     19  C   UNL     1      -3.395   1.665   0.752  1.00  0.00     0.012 A 
ATOM     20  C   UNL     1      -4.828   0.489  -1.335  1.00  0.00     0.021 A 
ATOM     21  C   UNL     1      -4.769   1.882   0.642  1.00  0.00     0.001 A 
ATOM     22  C   UNL     1      -5.485   1.290  -0.397  1.00  0.00     0.002 A 
ATOM     23  Cl  UNL     1      -2.702  -0.696  -2.455  1.00  0.00    -0.084 Cl
ENDBRANCH  15  17
BRANCH  16  24
ATOM     24  C   UNL     1       0.853   1.933  -0.045  1.00  0.00     0.170 CG0
ATOM     25  G   UNL     1       1.731   0.732   0.313  1.00  0.00     0.000 G0
ENDBRANCH  16  24
ENDBRANCH  10  15
ENDBRANCH   1   8
TORSDOF 3
