REMARK SMILES CNC1Cc2ccccc2N(C)c2ccccc21
REMARK SMILES IDX 13 1 14 2 15 3 16 4 17 5 18 6 3 7 2 9 1 10 11 12 12 13 10 14
REMARK SMILES IDX 5 15 9 16 6 17 8 18 7 19 4 20
REMARK H PARENT 2 11
REMARK Flexibility Score:   28.900
ROOT
ATOM      1  C   UNL     1      -0.238  -1.485  -0.043  1.00  0.00     0.046 A 
ATOM      2  C   UNL     1      -0.422  -2.696  -0.741  1.00  0.00     0.026 A 
ATOM      3  C   UNL     1       0.659  -3.475  -1.150  1.00  0.00     0.002 A 
ATOM      4  C   UNL     1       1.950  -3.061  -0.860  1.00  0.00     0.000 A 
ATOM      5  C   UNL     1       2.156  -1.862  -0.180  1.00  0.00     0.007 A 
ATOM      6  C   UNL     1       1.076  -1.049   0.220  1.00  0.00    -0.007 A 
ENDROOT
BRANCH   6   7
ATOM      7  C   UNL     1       1.268   0.273   0.950  1.00  0.00     0.090 CG0
ATOM      8  G   UNL     1       0.773   1.439   0.066  1.00  0.00     0.000 G0
BRANCH   7   9
ATOM      9  N   UNL     1       2.640   0.464   1.496  1.00  0.00    -0.313 NA
ATOM     10  C   UNL     1       3.586   1.124   0.605  1.00  0.00     0.102 C 
ATOM     11  H   UNL     1       2.564   1.016   2.350  1.00  0.00     0.122 HD
ENDBRANCH   7   9
ENDBRANCH   6   7
BRANCH   1  12
ATOM     12  N   UNL     1      -1.355  -0.737   0.413  1.00  0.00    -0.344 N 
ATOM     13  C   UNL     1      -2.410  -1.554   1.025  1.00  0.00     0.150 C 
BRANCH  12  14
ATOM     14  C   UNL     1      -1.684   0.578   0.006  1.00  0.00     0.044 A 
ATOM     15  C   UNL     1      -0.715   1.583  -0.195  1.00  0.00    -0.022 A 
ATOM     16  C   UNL     1      -3.032   0.929  -0.247  1.00  0.00     0.026 A 
ATOM     17  C   UNL     1      -1.115   2.859  -0.667  1.00  0.00     0.006 A 
ATOM     18  C   UNL     1      -3.412   2.198  -0.694  1.00  0.00     0.002 A 
ATOM     19  C   UNL     1      -2.449   3.165  -0.912  1.00  0.00     0.000 A 
BRANCH  15  20
ATOM     20  C   UNL     1       0.773   1.439   0.066  1.00  0.00     0.061 CG0
ATOM     21  G   UNL     1       1.268   0.273   0.950  1.00  0.00     0.000 G0
ENDBRANCH  15  20
ENDBRANCH  12  14
ENDBRANCH   1  12
TORSDOF 1
