REMARK SMILES Cc1ccc(S(=O)(=O)NC(=O)NC2CCCCC2)cc1N
REMARK SMILES IDX 1 1 2 2 20 3 19 4 5 5 4 6 3 7 21 8 6 11 7 12 8 13 9 14 10 15
REMARK SMILES IDX 11 16 12 17 13 20 14 21 18 22 15 23 17 24 16 25
REMARK H PARENT 21 9 21 10 9 18 12 19
ROOT
ATOM      1  C   UNL     1      -6.266  -1.665  -0.755  1.00  0.00     0.046 C 
ATOM      2  C   UNL     1      -5.051  -0.776  -0.762  1.00  0.00    -0.028 A 
ATOM      3  C   UNL     1      -4.601  -0.139   0.411  1.00  0.00     0.036 A 
ATOM      4  C   UNL     1      -3.528   0.756   0.327  1.00  0.00     0.048 A 
ATOM      5  C   UNL     1      -2.849   0.933  -0.881  1.00  0.00     0.090 A 
ATOM      6  C   UNL     1      -3.261   0.271  -2.036  1.00  0.00     0.023 A 
ATOM      7  C   UNL     1      -4.363  -0.578  -1.974  1.00  0.00     0.007 A 
ENDROOT
BRANCH   3   8
ATOM      8  N   UNL     1      -5.329  -0.208   1.606  1.00  0.00    -0.398 N 
ATOM      9  H   UNL     1      -5.870  -1.056   1.731  1.00  0.00     0.156 HD
ATOM     10  H   UNL     1      -4.810   0.049   2.439  1.00  0.00     0.156 HD
ENDBRANCH   3   8
BRANCH   5  11
ATOM     11  S   UNL     1      -1.456   2.043  -0.953  1.00  0.00     0.265 S 
ATOM     12  O   UNL     1      -1.582   2.950   0.167  1.00  0.00    -0.201 OA
ATOM     13  O   UNL     1      -1.361   2.499  -2.322  1.00  0.00    -0.201 OA
BRANCH  11  14
ATOM     14  N   UNL     1      -0.222   0.966  -0.644  1.00  0.00    -0.231 N 
ATOM     15  C   UNL     1       1.111   1.344  -0.635  1.00  0.00     0.328 C 
ATOM     16  O   UNL     1       1.497   2.482  -0.834  1.00  0.00    -0.248 OA
ATOM     17  N   UNL     1       1.939   0.290  -0.364  1.00  0.00    -0.335 N 
ATOM     18  H   UNL     1      -0.486  -0.003  -0.553  1.00  0.00     0.185 HD
ATOM     19  H   UNL     1       1.521  -0.552  -0.004  1.00  0.00     0.165 HD
BRANCH  17  20
ATOM     20  C   UNL     1       3.373   0.479  -0.171  1.00  0.00     0.083 C 
ATOM     21  C   UNL     1       3.679   0.979   1.254  1.00  0.00     0.025 C 
ATOM     22  C   UNL     1       4.116  -0.822  -0.519  1.00  0.00     0.025 C 
ATOM     23  C   UNL     1       4.006  -0.171   2.201  1.00  0.00     0.002 C 
ATOM     24  C   UNL     1       5.441  -0.933   0.225  1.00  0.00     0.002 C 
ATOM     25  C   UNL     1       5.237  -0.954   1.740  1.00  0.00     0.000 C 
ENDBRANCH  17  20
ENDBRANCH  11  14
ENDBRANCH   5  11
TORSDOF 4
