REMARK SMILES Cc1cc(=O)oc2cc(O)c(OCC(=O)O)cc12
REMARK SMILES IDX 12 1 11 2 2 3 3 4 18 5 4 6 17 7 7 8 5 9 6 10 8 11 9 12 1 13
REMARK SMILES IDX 10 14 13 16 14 17 15 18 16 19
REMARK H PARENT 10 15 16 20
ROOT
ATOM      1  O   UNL     1      -2.420  -1.110  -0.343  1.00  0.00    -0.478 OA
ENDROOT
BRANCH   1   2
ATOM      2  C   UNL     1      -1.054  -1.106  -0.225  1.00  0.00     0.162 A 
ATOM      3  C   UNL     1       2.020   0.894   0.802  1.00  0.00    -0.033 C 
ATOM      4  C   UNL     1       3.341   0.666   0.827  1.00  0.00     0.098 C 
ATOM      5  C   UNL     1       1.134  -0.177   0.318  1.00  0.00     0.024 A 
ATOM      6  C   UNL     1       3.958  -0.598   0.398  1.00  0.00     0.336 C 
ATOM      7  C   UNL     1      -0.265  -0.052   0.249  1.00  0.00     0.062 A 
ATOM      8  C   UNL     1       1.711  -1.381  -0.100  1.00  0.00     0.142 A 
ATOM      9  O   UNL     1       5.173  -0.750   0.451  1.00  0.00    -0.246 OA
ATOM     10  O   UNL     1       3.104  -1.586  -0.058  1.00  0.00    -0.423 OA
ATOM     11  C   UNL     1       0.947  -2.440  -0.583  1.00  0.00     0.098 A 
ATOM     12  C   UNL     1      -0.428  -2.287  -0.644  1.00  0.00     0.161 A 
ATOM     13  C   UNL     1       1.448   2.207   1.250  1.00  0.00     0.045 C 
BRANCH  12  14
ATOM     14  O   UNL     1      -1.171  -3.329  -1.126  1.00  0.00    -0.504 OA
ATOM     15  H   UNL     1      -2.093  -3.008  -1.136  1.00  0.00     0.293 HD
ENDBRANCH  12  14
ENDBRANCH   1   2
BRANCH   1  16
ATOM     16  C   UNL     1      -3.151  -0.045   0.252  1.00  0.00     0.351 C 
BRANCH  16  17
ATOM     17  C   UNL     1      -3.248   1.214  -0.595  1.00  0.00     0.341 C 
ATOM     18  O   UNL     1      -2.761   1.415  -1.695  1.00  0.00    -0.248 OA
BRANCH  17  19
ATOM     19  O   UNL     1      -3.968   2.181   0.014  1.00  0.00    -0.479 OA
ATOM     20  H   UNL     1      -3.972   2.919  -0.634  1.00  0.00     0.296 HD
ENDBRANCH  17  19
ENDBRANCH  16  17
ENDBRANCH   1  16
TORSDOF 5
