REMARK SMILES CC[C@@H](CO)NC(=O)[C@@H]1C=C2c3cccc4[nH]cc(c34)C[C@H]2N(C)C1
REMARK SMILES IDX 3 1 2 2 1 3 4 4 5 5 6 7 7 8 8 9 9 11 25 12 10 13 23 14 11 15
REMARK SMILES IDX 22 16 12 17 21 18 13 19 20 20 19 21 14 22 16 23 18 24 15 25
REMARK SMILES IDX 17 26 24 27
REMARK H PARENT 5 6 6 10 17 28
ROOT
ATOM      1  C   UNL     1       3.792   0.265  -0.020  1.00  0.00     0.107 C 
ENDROOT
BRANCH   1   2
ATOM      2  C   UNL     1       3.882   1.285   1.129  1.00  0.00     0.024 C 
ATOM      3  C   UNL     1       5.294   1.766   1.424  1.00  0.00     0.006 C 
ENDBRANCH   1   2
BRANCH   1   4
ATOM      4  C   UNL     1       4.557  -1.043   0.274  1.00  0.00     0.180 C 
BRANCH   4   5
ATOM      5  O   UNL     1       5.949  -0.904   0.004  1.00  0.00    -0.394 OA
ATOM      6  H   UNL     1       6.036  -0.807  -0.962  1.00  0.00     0.210 HD
ENDBRANCH   4   5
ENDBRANCH   1   4
BRANCH   1   7
ATOM      7  N   UNL     1       2.387  -0.008  -0.313  1.00  0.00    -0.351 N 
ATOM      8  C   UNL     1       1.982  -0.509  -1.534  1.00  0.00     0.228 C 
ATOM      9  O   UNL     1       2.776  -0.741  -2.444  1.00  0.00    -0.274 OA
ATOM     10  H   UNL     1       1.703   0.080   0.431  1.00  0.00     0.163 HD
BRANCH   8  11
ATOM     11  C   UNL     1       0.485  -0.815  -1.663  1.00  0.00     0.115 C 
ATOM     12  C   UNL     1       0.184  -2.117  -0.904  1.00  0.00     0.102 C 
ATOM     13  C   UNL     1      -0.346   0.342  -1.168  1.00  0.00    -0.007 C 
ATOM     14  N   UNL     1      -1.265  -2.356  -0.773  1.00  0.00    -0.298 NA
ATOM     15  C   UNL     1      -1.407   0.154  -0.362  1.00  0.00    -0.026 C 
ATOM     16  C   UNL     1      -1.919  -1.272   0.023  1.00  0.00     0.091 C 
ATOM     17  C   UNL     1      -2.158   1.309   0.183  1.00  0.00    -0.011 A 
ATOM     18  C   UNL     1      -3.488  -1.410  -0.067  1.00  0.00     0.061 C 
ATOM     19  C   UNL     1      -1.722   2.628   0.364  1.00  0.00     0.009 A 
ATOM     20  C   UNL     1      -3.468   1.009   0.580  1.00  0.00     0.010 A 
ATOM     21  C   UNL     1      -4.164  -0.216   0.512  1.00  0.00    -0.020 A 
ATOM     22  C   UNL     1      -2.574   3.593   0.919  1.00  0.00     0.003 A 
ATOM     23  C   UNL     1      -4.305   1.965   1.129  1.00  0.00     0.046 A 
ATOM     24  C   UNL     1      -5.422  -0.000   1.024  1.00  0.00     0.087 A 
ATOM     25  C   UNL     1      -3.886   3.284   1.314  1.00  0.00     0.027 A 
ATOM     26  N   UNL     1      -5.497   1.326   1.395  1.00  0.00    -0.361 N 
ATOM     27  C   UNL     1      -1.492  -3.681  -0.189  1.00  0.00     0.106 C 
ATOM     28  H   UNL     1      -6.310   1.771   1.797  1.00  0.00     0.166 HD
ENDBRANCH   8  11
ENDBRANCH   1   7
TORSDOF 5
