REMARK SMILES CC(=O)OCC(=O)[C@@]1(O)CC[C@H]2[C@@H]3C[C@H](C)C4=CC(=O)C=C[C@]4(C)[C@H]3[C@@H](O)C[C@@]21C
REMARK SMILES IDX 6 1 7 2 8 3 15 4 14 5 17 6 13 7 18 8 23 9 12 10 25 11 19 12
REMARK SMILES IDX 22 13 11 14 29 15 26 16 21 17 20 18 10 19 28 20 16 21 24 22
REMARK SMILES IDX 30 23 27 24 9 26 5 28 4 29 2 30 3 31 1 32
REMARK H PARENT 27 25 9 27
ROOT
ATOM      1  C   UNL     1       3.441  -2.097   0.690  1.00  0.00     0.202 C 
ATOM      2  O   UNL     1       3.538  -3.190   1.273  1.00  0.00    -0.293 OA
ENDROOT
BRANCH   1   3
ATOM      3  C   UNL     1       2.253  -1.171   1.056  1.00  0.00     0.132 C 
ATOM      4  C   UNL     1      -2.922   1.818   1.132  1.00  0.00     0.013 C 
ATOM      5  C   UNL     1      -1.483   2.044   0.644  1.00  0.00     0.012 C 
ATOM      6  C   UNL     1      -3.794   1.009   0.176  1.00  0.00    -0.053 C 
ATOM      7  C   UNL     1      -0.795   0.839  -0.031  1.00  0.00     0.000 C 
ATOM      8  C   UNL     1      -5.118   0.925   0.416  1.00  0.00     0.052 C 
ATOM      9  C   UNL     1      -3.113   0.226  -0.967  1.00  0.00     0.013 C 
ATOM     10  C   UNL     1       0.370   0.247   0.775  1.00  0.00     0.002 C 
ATOM     11  C   UNL     1      -1.779  -0.331  -0.369  1.00  0.00     0.035 C 
ATOM     12  C   UNL     1      -5.995  -0.006  -0.324  1.00  0.00     0.178 C 
ATOM     13  C   UNL     1      -4.027  -0.883  -1.480  1.00  0.00    -0.012 C 
ATOM     14  C   UNL     1       1.461   1.157   1.335  1.00  0.00     0.008 C 
ATOM     15  C   UNL     1       1.184  -0.816  -0.025  1.00  0.00     0.009 C 
ATOM     16  C   UNL     1      -1.058  -1.469  -1.142  1.00  0.00     0.119 C 
ATOM     17  C   UNL     1      -5.336  -0.981  -1.212  1.00  0.00     0.048 C 
ATOM     18  O   UNL     1      -7.209  -0.001  -0.168  1.00  0.00    -0.290 OA
ATOM     19  C   UNL     1       2.629   0.198   1.669  1.00  0.00     0.044 C 
ATOM     20  C   UNL     1       0.221  -1.958  -0.419  1.00  0.00     0.042 C 
ATOM     21  C   UNL     1      -2.900   1.202   2.542  1.00  0.00     0.012 C 
ATOM     22  C   UNL     1      -2.917   1.167  -2.179  1.00  0.00     0.021 C 
ATOM     23  C   UNL     1       1.839  -0.221  -1.298  1.00  0.00     0.015 C 
BRANCH  16  24
ATOM     24  O   UNL     1      -0.752  -1.070  -2.470  1.00  0.00    -0.393 OA
ATOM     25  H   UNL     1      -0.387  -1.842  -2.935  1.00  0.00     0.210 HD
ENDBRANCH  16  24
BRANCH   3  26
ATOM     26  O   UNL     1       1.562  -1.881   2.126  1.00  0.00    -0.381 OA
ATOM     27  H   UNL     1       2.102  -2.674   2.339  1.00  0.00     0.212 HD
ENDBRANCH   3  26
ENDBRANCH   1   3
BRANCH   1  28
ATOM     28  C   UNL     1       4.461  -1.738  -0.380  1.00  0.00     0.311 C 
BRANCH  28  29
ATOM     29  O   UNL     1       4.943  -0.407  -0.292  1.00  0.00    -0.458 OA
BRANCH  29  30
ATOM     30  C   UNL     1       5.728  -0.033  -1.340  1.00  0.00     0.303 C 
ATOM     31  O   UNL     1       6.001  -0.737  -2.300  1.00  0.00    -0.253 OA
ATOM     32  C   UNL     1       6.195   1.378  -1.156  1.00  0.00     0.139 C 
ENDBRANCH  29  30
ENDBRANCH  28  29
ENDBRANCH   1  28
TORSDOF 6
