REMARK SMILES CSCC[C@H](N)C(=O)O
REMARK SMILES IDX 4 1 3 2 2 3 1 4 5 5 6 6 7 9 8 10 9 11
REMARK H PARENT 6 7 6 8 9 12
ROOT
ATOM      1  C   UNL     1      -0.045  -0.153   0.471  1.00  0.00     0.041 C 
ENDROOT
BRANCH   1   2
ATOM      2  C   UNL     1       1.067  -1.139   0.121  1.00  0.00     0.071 C 
BRANCH   2   3
ATOM      3  S   UNL     1       2.641  -0.721   0.944  1.00  0.00    -0.165 SA
ATOM      4  C   UNL     1       3.107   0.746  -0.008  1.00  0.00     0.085 C 
ENDBRANCH   2   3
ENDBRANCH   1   2
BRANCH   1   5
ATOM      5  C   UNL     1      -1.406  -0.580  -0.098  1.00  0.00     0.162 C 
BRANCH   5   6
ATOM      6  N   UNL     1      -1.486  -0.440  -1.568  1.00  0.00    -0.318 NA
ATOM      7  H   UNL     1      -0.628  -0.749  -2.016  1.00  0.00     0.119 HD
ATOM      8  H   UNL     1      -1.593   0.555  -1.784  1.00  0.00     0.119 HD
ENDBRANCH   5   6
BRANCH   5   9
ATOM      9  C   UNL     1      -2.500   0.261   0.571  1.00  0.00     0.320 C 
ATOM     10  O   UNL     1      -3.074   0.000   1.616  1.00  0.00    -0.251 OA
BRANCH   9  11
ATOM     11  O   UNL     1      -2.754   1.422  -0.076  1.00  0.00    -0.480 OA
ATOM     12  H   UNL     1      -3.466   1.831   0.460  1.00  0.00     0.296 HD
ENDBRANCH   9  11
ENDBRANCH   5   9
ENDBRANCH   1   5
TORSDOF 6
