REMARK SMILES C[S+](C)CC[C@H](N)C(=O)O
REMARK SMILES IDX 5 1 4 2 2 3 1 4 3 5 6 6 7 7 8 10 9 11 10 12
REMARK H PARENT 7 8 7 9 10 13
ROOT
ATOM      1  C   UNL     1       0.668   0.472  -0.247  1.00  0.00     0.085 C 
ENDROOT
BRANCH   1   2
ATOM      2  C   UNL     1      -0.593  -0.375  -0.406  1.00  0.00     0.279 C 
BRANCH   2   3
ATOM      3  S   UNL     1      -2.074   0.682  -0.564  1.00  0.00    -0.019 S 
ATOM      4  C   UNL     1      -2.283   1.044   1.197  1.00  0.00     0.341 C 
ATOM      5  C   UNL     1      -3.275  -0.672  -0.625  1.00  0.00     0.341 C 
ENDBRANCH   2   3
ENDBRANCH   1   2
BRANCH   1   6
ATOM      6  C   UNL     1       1.957  -0.358  -0.305  1.00  0.00     0.166 C 
BRANCH   6   7
ATOM      7  N   UNL     1       1.969  -1.372   0.774  1.00  0.00    -0.318 NA
ATOM      8  H   UNL     1       1.512  -2.221   0.447  1.00  0.00     0.119 HD
ATOM      9  H   UNL     1       2.944  -1.630   0.956  1.00  0.00     0.119 HD
ENDBRANCH   6   7
BRANCH   6  10
ATOM     10  C   UNL     1       3.210   0.527  -0.184  1.00  0.00     0.320 C 
ATOM     11  O   UNL     1       4.221   0.256   0.450  1.00  0.00    -0.251 OA
BRANCH  10  12
ATOM     12  O   UNL     1       3.168   1.643  -0.936  1.00  0.00    -0.480 OA
ATOM     13  H   UNL     1       4.031   2.075  -0.765  1.00  0.00     0.296 HD
ENDBRANCH  10  12
ENDBRANCH   6  10
ENDBRANCH   1   6
TORSDOF 6
