REMARK SMILES COc1ccc2c(c1)N(CCCN(C)C)c1ccccc1S2
REMARK SMILES IDX 10 1 9 2 3 3 8 4 4 5 7 6 5 7 6 8 22 9 16 10 21 11 17 12
REMARK SMILES IDX 20 13 18 14 19 15 2 16 1 17 11 18 12 19 13 20 14 21 15 22
REMARK H PARENT
ROOT
ATOM      1  C   UNL     1       0.685  -0.161  -0.489  1.00  0.00     0.124 C 
ENDROOT
BRANCH   1   2
ATOM      2  N   UNL     1      -0.653  -0.739  -0.204  1.00  0.00    -0.339 N 
ATOM      3  C   UNL     1      -2.726   2.421  -0.454  1.00  0.00     0.121 A 
ATOM      4  C   UNL     1      -1.636   1.543  -0.363  1.00  0.00     0.073 A 
ATOM      5  C   UNL     1      -4.011   1.905  -0.489  1.00  0.00     0.048 A 
ATOM      6  C   UNL     1      -1.775   0.136  -0.308  1.00  0.00     0.059 A 
ATOM      7  C   UNL     1      -4.191   0.526  -0.430  1.00  0.00     0.021 A 
ATOM      8  C   UNL     1      -3.095  -0.354  -0.336  1.00  0.00     0.036 A 
ATOM      9  S   UNL     1      -3.508  -2.080  -0.292  1.00  0.00    -0.086 SA
ATOM     10  C   UNL     1      -0.717  -2.137   0.065  1.00  0.00     0.055 A 
ATOM     11  C   UNL     1      -1.942  -2.835   0.073  1.00  0.00     0.036 A 
ATOM     12  C   UNL     1       0.434  -2.903   0.361  1.00  0.00     0.027 A 
ATOM     13  C   UNL     1      -1.991  -4.217   0.352  1.00  0.00     0.017 A 
ATOM     14  C   UNL     1       0.381  -4.275   0.640  1.00  0.00     0.002 A 
ATOM     15  C   UNL     1      -0.836  -4.935   0.634  1.00  0.00     0.001 A 
BRANCH   3  16
ATOM     16  O   UNL     1      -2.389   3.747  -0.496  1.00  0.00    -0.497 OA
ATOM     17  C   UNL     1      -3.459   4.679  -0.596  1.00  0.00     0.278 C 
ENDBRANCH   3  16
ENDBRANCH   1   2
BRANCH   1  18
ATOM     18  C   UNL     1       1.347   0.374   0.790  1.00  0.00     0.037 C 
BRANCH  18  19
ATOM     19  C   UNL     1       2.634   1.153   0.493  1.00  0.00     0.085 C 
BRANCH  19  20
ATOM     20  N   UNL     1       3.667   0.357  -0.191  1.00  0.00    -0.309 NA
ATOM     21  C   UNL     1       4.285  -0.620   0.711  1.00  0.00     0.104 C 
ATOM     22  C   UNL     1       4.704   1.241  -0.734  1.00  0.00     0.104 C 
ENDBRANCH  19  20
ENDBRANCH  18  19
ENDBRANCH   1  18
TORSDOF 5
