REMARK SMILES CN1C(=O)C(=NNC(N)=S)c2ccccc21
REMARK SMILES IDX 1 1 2 2 3 3 4 4 5 5 6 6 11 7 16 8 15 9 14 10 13 11 12 12
REMARK SMILES IDX 7 13 8 14 9 15 10 16
REMARK H PARENT 7 17 9 18 9 19
ROOT
ATOM      1  C   UNL     1      -2.093  -2.393   0.574  1.00  0.00     0.153 C 
ATOM      2  N   UNL     1      -1.265  -1.250   0.306  1.00  0.00    -0.309 N 
ATOM      3  C   UNL     1       0.118  -1.256   0.310  1.00  0.00     0.279 C 
ATOM      4  O   UNL     1       0.904  -2.158   0.526  1.00  0.00    -0.267 OA
ATOM      5  C   UNL     1       0.534   0.177  -0.029  1.00  0.00     0.158 C 
ATOM      6  N   UNL     1       1.727   0.666  -0.142  1.00  0.00    -0.167 NA
ATOM      7  C   UNL     1      -0.703   0.925  -0.208  1.00  0.00     0.031 A 
ATOM      8  C   UNL     1      -1.753   0.031   0.001  1.00  0.00     0.053 A 
ATOM      9  C   UNL     1      -3.065   0.455  -0.102  1.00  0.00     0.027 A 
ATOM     10  C   UNL     1      -3.293   1.800  -0.421  1.00  0.00     0.002 A 
ATOM     11  C   UNL     1      -2.222   2.691  -0.630  1.00  0.00     0.001 A 
ATOM     12  C   UNL     1      -0.901   2.255  -0.524  1.00  0.00     0.013 A 
ENDROOT
BRANCH   6  13
ATOM     13  N   UNL     1       2.764  -0.199   0.060  1.00  0.00    -0.253 N 
ATOM     14  C   UNL     1       4.076   0.186  -0.078  1.00  0.00     0.184 C 
ATOM     15  N   UNL     1       4.960  -0.825   0.169  1.00  0.00    -0.375 N 
ATOM     16  S   UNL     1       4.655   1.685  -0.515  1.00  0.00    -0.040 S 
ATOM     17  H   UNL     1       2.551  -1.181   0.241  1.00  0.00     0.193 HD
ATOM     18  H   UNL     1       4.690  -1.593   0.766  1.00  0.00     0.159 HD
ATOM     19  H   UNL     1       5.939  -0.563   0.191  1.00  0.00     0.159 HD
ENDBRANCH   6  13
TORSDOF 1
