REMARK SMILES CN1CCN2c3ccccc3Cc3ccccc3C2C1
REMARK SMILES IDX 1 1 2 2 3 3 4 4 5 5 19 6 20 7 18 8 13 9 12 10 11 11 6 12
REMARK SMILES IDX 7 13 8 14 9 15 10 16 14 17 15 18 16 19 17 20
REMARK H PARENT
ROOT
ATOM      1  C   UNL     1       3.843  -0.671  -0.686  1.00  0.00     0.105 C 
ATOM      2  N   UNL     1       3.059  -0.010   0.354  1.00  0.00    -0.302 NA
ATOM      3  C   UNL     1       2.802   1.405   0.020  1.00  0.00     0.105 C 
ATOM      4  C   UNL     1       1.673   1.676  -1.009  1.00  0.00     0.133 C 
ATOM      5  N   UNL     1       0.426   0.925  -0.728  1.00  0.00    -0.362 N 
ATOM      6  C   UNL     1       0.692  -0.544  -0.550  1.00  0.00     0.127 C 
ATOM      7  C   UNL     1       1.762  -0.703   0.596  1.00  0.00     0.114 C 
ATOM      8  C   UNL     1      -0.490  -1.529  -0.463  1.00  0.00    -0.021 A 
ATOM      9  C   UNL     1      -1.831  -1.206  -0.763  1.00  0.00    -0.038 A 
ATOM     10  C   UNL     1      -2.242   0.187  -1.158  1.00  0.00     0.073 C 
ATOM     11  C   UNL     1      -1.888   1.184  -0.091  1.00  0.00    -0.020 A 
ATOM     12  C   UNL     1      -0.537   1.532   0.086  1.00  0.00     0.041 A 
ATOM     13  C   UNL     1      -0.261   2.523   1.040  1.00  0.00     0.026 A 
ATOM     14  C   UNL     1      -1.268   3.100   1.824  1.00  0.00     0.002 A 
ATOM     15  C   UNL     1      -2.590   2.710   1.659  1.00  0.00     0.000 A 
ATOM     16  C   UNL     1      -2.902   1.755   0.700  1.00  0.00     0.006 A 
ATOM     17  C   UNL     1      -2.833  -2.198  -0.706  1.00  0.00     0.004 A 
ATOM     18  C   UNL     1      -2.527  -3.514  -0.380  1.00  0.00     0.000 A 
ATOM     19  C   UNL     1      -1.211  -3.862  -0.125  1.00  0.00     0.000 A 
ATOM     20  C   UNL     1      -0.211  -2.887  -0.179  1.00  0.00     0.006 A 
ENDROOT
TORSDOF 0
