REMARK SMILES Cc1[nH]c(=O)c(C#N)cc1-c1ccncc1
REMARK SMILES IDX 1 1 2 2 10 3 9 4 6 5 7 6 8 7 4 8 5 9 3 10 11 12 12 13 16 14
REMARK SMILES IDX 13 15 15 16 14 17
REMARK H PARENT 3 11
ROOT
ATOM      1  C   UNL     1       0.366  -2.366  -0.256  1.00  0.00     0.065 C 
ATOM      2  C   UNL     1       0.977  -0.996  -0.118  1.00  0.00     0.023 C 
ATOM      3  C   UNL     1       0.305   0.171   0.015  1.00  0.00     0.002 C 
ATOM      4  C   UNL     1       1.068   1.409   0.137  1.00  0.00     0.035 C 
ATOM      5  C   UNL     1       2.411   1.433   0.123  1.00  0.00     0.118 C 
ATOM      6  C   UNL     1       3.139   2.645   0.243  1.00  0.00     0.105 C 
ATOM      7  N   UNL     1       3.677   3.668   0.345  1.00  0.00    -0.192 NA
ATOM      8  C   UNL     1       3.140   0.147  -0.022  1.00  0.00     0.266 C 
ATOM      9  O   UNL     1       4.364   0.076  -0.045  1.00  0.00    -0.268 OA
ATOM     10  N   UNL     1       2.359  -0.979  -0.133  1.00  0.00    -0.325 N 
ATOM     11  H   UNL     1       2.873  -1.847  -0.231  1.00  0.00     0.169 HD
ENDROOT
BRANCH   3  12
ATOM     12  C   UNL     1      -1.169   0.202   0.036  1.00  0.00    -0.014 A 
ATOM     13  C   UNL     1      -1.860   0.102   1.244  1.00  0.00     0.029 A 
ATOM     14  C   UNL     1      -1.889   0.356  -1.150  1.00  0.00     0.029 A 
ATOM     15  C   UNL     1      -3.243   0.148   1.212  1.00  0.00     0.111 A 
ATOM     16  C   UNL     1      -3.271   0.391  -1.076  1.00  0.00     0.111 A 
ATOM     17  N   UNL     1      -3.963   0.289   0.079  1.00  0.00    -0.265 NA
ENDBRANCH   3  12
TORSDOF 1
