REMARK SMILES CCCCCCCCCCCCCCCCOP(=O)([O-])OCC[N+](C)(C)C
REMARK SMILES IDX 12 1 11 2 10 3 9 4 8 5 7 6 6 7 5 8 4 9 3 10 2 11 1 12 13 13
REMARK SMILES IDX 14 14 15 15 16 16 17 17 18 18 19 19 20 20 21 21 22 22 23 23
REMARK SMILES IDX 24 24 25 25 26 26 27 27
REMARK H PARENT
ROOT
ATOM      1  C   UNL     1      -0.262   1.169  -0.836  1.00  0.00     0.000 C 
ENDROOT
BRANCH   1   2
ATOM      2  C   UNL     1      -0.183   1.807   0.556  1.00  0.00     0.000 C 
BRANCH   2   3
ATOM      3  C   UNL     1       1.079   1.501   1.367  1.00  0.00     0.000 C 
BRANCH   3   4
ATOM      4  C   UNL     1       2.376   1.916   0.669  1.00  0.00     0.000 C 
BRANCH   4   5
ATOM      5  C   UNL     1       3.591   1.620   1.553  1.00  0.00    -0.000 C 
BRANCH   5   6
ATOM      6  C   UNL     1       4.926   2.031   0.926  1.00  0.00    -0.000 C 
BRANCH   6   7
ATOM      7  C   UNL     1       5.240   1.280  -0.373  1.00  0.00    -0.000 C 
BRANCH   7   8
ATOM      8  C   UNL     1       6.687   1.485  -0.837  1.00  0.00    -0.000 C 
BRANCH   8   9
ATOM      9  C   UNL     1       7.611   0.294  -0.550  1.00  0.00    -0.000 C 
BRANCH   9  10
ATOM     10  C   UNL     1       7.828   0.023   0.940  1.00  0.00    -0.000 C 
BRANCH  10  11
ATOM     11  C   UNL     1       8.712  -1.196   1.214  1.00  0.00    -0.003 C 
ATOM     12  C   UNL     1      10.135  -1.054   0.695  1.00  0.00     0.004 C 
ENDBRANCH  10  11
ENDBRANCH   9  10
ENDBRANCH   8   9
ENDBRANCH   7   8
ENDBRANCH   6   7
ENDBRANCH   5   6
ENDBRANCH   4   5
ENDBRANCH   3   4
ENDBRANCH   2   3
ENDBRANCH   1   2
BRANCH   1  13
ATOM     13  C   UNL     1      -0.122  -0.354  -0.820  1.00  0.00     0.000 C 
BRANCH  13  14
ATOM     14  C   UNL     1      -0.269  -0.992  -2.205  1.00  0.00     0.002 C 
BRANCH  14  15
ATOM     15  C   UNL     1      -1.628  -0.826  -2.900  1.00  0.00     0.029 C 
BRANCH  15  16
ATOM     16  C   UNL     1      -2.795  -1.448  -2.139  1.00  0.00     0.170 C 
BRANCH  16  17
ATOM     17  O   UNL     1      -3.178  -0.603  -1.071  1.00  0.00    -0.318 OA
BRANCH  17  18
ATOM     18  P   UNL     1      -4.134  -1.231   0.070  1.00  0.00     0.268 P 
ATOM     19  O   UNL     1      -3.756  -2.652   0.381  1.00  0.00    -0.276 OA
ATOM     20  O   UNL     1      -4.353  -0.212   1.160  1.00  0.00    -0.756 OA
BRANCH  18  21
ATOM     21  O   UNL     1      -5.529  -1.285  -0.771  1.00  0.00    -0.312 OA
BRANCH  21  22
ATOM     22  C   UNL     1      -6.570  -1.976  -0.109  1.00  0.00     0.231 C 
BRANCH  22  23
ATOM     23  C   UNL     1      -7.891  -1.214  -0.222  1.00  0.00     0.292 C 
BRANCH  23  24
ATOM     24  N   UNL     1      -7.962   0.157   0.493  1.00  0.00    -0.329 N 
ATOM     25  C   UNL     1      -7.042   1.174  -0.184  1.00  0.00     0.334 C 
ATOM     26  C   UNL     1      -7.562   0.037   1.959  1.00  0.00     0.334 C 
ATOM     27  C   UNL     1      -9.385   0.672   0.408  1.00  0.00     0.334 C 
ENDBRANCH  23  24
ENDBRANCH  22  23
ENDBRANCH  21  22
ENDBRANCH  18  21
ENDBRANCH  17  18
ENDBRANCH  16  17
ENDBRANCH  15  16
ENDBRANCH  14  15
ENDBRANCH  13  14
ENDBRANCH   1  13
TORSDOF 20
