REMARK SMILES O=P(O)(O)C(O)(Cc1cnc2ccccn12)P(=O)(O)O
REMARK SMILES IDX 5 1 6 2 7 4 8 5 9 6 16 7 10 8 15 9 11 10 14 11 12 12 13 13
REMARK SMILES IDX 2 14 1 15 3 16 4 18 17 20 18 21 19 22 20 24
REMARK H PARENT 6 3 3 17 4 19 19 23 20 25
ROOT
ATOM      1  C   UNL     1      -1.408   0.373  -0.006  1.00  0.00     0.272 C 
ENDROOT
BRANCH   1   2
ATOM      2  O   UNL     1      -0.928   0.094   1.339  1.00  0.00    -0.367 OA
ATOM      3  H   UNL     1      -1.732  -0.011   1.894  1.00  0.00     0.213 HD
ENDBRANCH   1   2
BRANCH   1   4
ATOM      4  C   UNL     1      -0.241   0.785  -0.920  1.00  0.00     0.118 C 
BRANCH   4   5
ATOM      5  C   UNL     1       0.955  -0.115  -0.898  1.00  0.00     0.047 A 
ATOM      6  C   UNL     1       1.366  -1.079  -1.799  1.00  0.00     0.135 A 
ATOM      7  N   UNL     1       1.950  -0.086   0.066  1.00  0.00    -0.304 N 
ATOM      8  N   UNL     1       2.509  -1.703  -1.385  1.00  0.00    -0.237 NA
ATOM      9  C   UNL     1       2.116   0.736   1.183  1.00  0.00     0.093 C 
ATOM     10  C   UNL     1       2.858  -1.088  -0.275  1.00  0.00     0.136 A 
ATOM     11  C   UNL     1       3.181   0.558   1.983  1.00  0.00     0.018 C 
ATOM     12  C   UNL     1       3.979  -1.278   0.582  1.00  0.00     0.047 C 
ATOM     13  C   UNL     1       4.136  -0.490   1.664  1.00  0.00     0.005 C 
ENDBRANCH   4   5
ENDBRANCH   1   4
BRANCH   1  14
ATOM     14  P   UNL     1      -2.334  -1.100  -0.526  1.00  0.00     0.369 P 
ATOM     15  O   UNL     1      -3.220  -1.735   0.493  1.00  0.00    -0.256 OA
BRANCH  14  16
ATOM     16  O   UNL     1      -3.164  -0.647  -1.832  1.00  0.00    -0.322 OA
ATOM     17  H   UNL     1      -3.710  -1.403  -2.145  1.00  0.00     0.221 HD
ENDBRANCH  14  16
BRANCH  14  18
ATOM     18  O   UNL     1      -1.327  -2.153  -1.186  1.00  0.00    -0.322 OA
ATOM     19  H   UNL     1      -0.670  -2.529  -0.561  1.00  0.00     0.221 HD
ENDBRANCH  14  18
ENDBRANCH   1  14
BRANCH   1  20
ATOM     20  P   UNL     1      -2.515   1.850   0.163  1.00  0.00     0.369 P 
ATOM     21  O   UNL     1      -1.837   3.148   0.462  1.00  0.00    -0.256 OA
BRANCH  20  22
ATOM     22  O   UNL     1      -3.471   1.898  -1.123  1.00  0.00    -0.322 OA
ATOM     23  H   UNL     1      -3.577   1.058  -1.629  1.00  0.00     0.221 HD
ENDBRANCH  20  22
BRANCH  20  24
ATOM     24  O   UNL     1      -3.556   1.443   1.313  1.00  0.00    -0.322 OA
ATOM     25  H   UNL     1      -4.116   2.205   1.567  1.00  0.00     0.221 HD
ENDBRANCH  20  24
ENDBRANCH   1  20
TORSDOF 9
