REMARK SMILES O=C1c2c(O)ccc(O)c2C(=O)c2c(NCCNCCO)ccc(NCCNCCO)c21
REMARK SMILES IDX 24 1 23 2 22 3 14 4 13 5 32 6 2 7 1 8 3 9 4 10 6 11 7 12
REMARK SMILES IDX 8 13 10 14 11 15 12 16 25 17 26 19 27 20 28 21 29 23 30 24
REMARK SMILES IDX 31 25 15 27 16 29 17 30 18 31 19 33 20 34 21 35 5 37 9 39
REMARK H PARENT 25 18 28 22 31 26 15 28 18 32 21 36 5 38 9 40
ROOT
ATOM      1  C   UNL     1       1.880  -0.600  -0.110  1.00  0.00     0.046 A 
ATOM      2  C   UNL     1       1.264   0.653  -0.187  1.00  0.00     0.028 A 
ATOM      3  C   UNL     1      -0.126   0.786  -0.230  1.00  0.00     0.028 A 
ATOM      4  C   UNL     1      -0.970  -0.328  -0.198  1.00  0.00     0.046 A 
ATOM      5  C   UNL     1      -0.362  -1.608  -0.165  1.00  0.00     0.059 A 
ATOM      6  C   UNL     1       1.039  -1.742  -0.123  1.00  0.00     0.059 A 
ATOM      7  C   UNL     1       1.631  -3.107  -0.070  1.00  0.00     0.200 C 
ATOM      8  O   UNL     1       2.829  -3.283   0.152  1.00  0.00    -0.288 OA
ATOM      9  C   UNL     1       0.788  -4.296  -0.277  1.00  0.00     0.079 A 
ATOM     10  C   UNL     1       1.363  -5.569  -0.419  1.00  0.00     0.127 A 
ATOM     11  C   UNL     1       0.566  -6.695  -0.611  1.00  0.00     0.051 A 
ATOM     12  C   UNL     1      -0.819  -6.561  -0.647  1.00  0.00     0.051 A 
ATOM     13  C   UNL     1      -1.396  -5.303  -0.492  1.00  0.00     0.127 A 
ATOM     14  C   UNL     1      -0.595  -4.162  -0.314  1.00  0.00     0.079 A 
ATOM     15  C   UNL     1      -1.205  -2.833  -0.147  1.00  0.00     0.200 C 
ATOM     16  O   UNL     1      -2.424  -2.773   0.015  1.00  0.00    -0.288 OA
ENDROOT
BRANCH   1  17
ATOM     17  N   UNL     1       3.276  -0.718  -0.171  1.00  0.00    -0.383 N 
ATOM     18  H   UNL     1       3.584  -1.664   0.091  1.00  0.00     0.160 HD
BRANCH  17  19
ATOM     19  C   UNL     1       4.152   0.318   0.381  1.00  0.00     0.128 C 
BRANCH  19  20
ATOM     20  C   UNL     1       4.765   1.163  -0.754  1.00  0.00     0.102 C 
BRANCH  20  21
ATOM     21  N   UNL     1       5.680   2.224  -0.308  1.00  0.00    -0.313 NA
ATOM     22  H   UNL     1       6.187   2.578  -1.120  1.00  0.00     0.122 HD
BRANCH  21  23
ATOM     23  C   UNL     1       5.018   3.339   0.374  1.00  0.00     0.109 C 
BRANCH  23  24
ATOM     24  C   UNL     1       4.143   4.228  -0.522  1.00  0.00     0.171 C 
BRANCH  24  25
ATOM     25  O   UNL     1       3.609   5.316   0.226  1.00  0.00    -0.395 OA
ATOM     26  H   UNL     1       4.358   5.861   0.526  1.00  0.00     0.210 HD
ENDBRANCH  24  25
ENDBRANCH  23  24
ENDBRANCH  21  23
ENDBRANCH  20  21
ENDBRANCH  19  20
ENDBRANCH  17  19
ENDBRANCH   1  17
BRANCH   4  27
ATOM     27  N   UNL     1      -2.362  -0.177  -0.349  1.00  0.00    -0.383 N 
ATOM     28  H   UNL     1      -2.839  -1.057  -0.109  1.00  0.00     0.160 HD
BRANCH  27  29
ATOM     29  C   UNL     1      -3.022   0.987   0.247  1.00  0.00     0.128 C 
BRANCH  29  30
ATOM     30  C   UNL     1      -4.557   0.830   0.161  1.00  0.00     0.102 C 
BRANCH  30  31
ATOM     31  N   UNL     1      -5.339   1.888   0.820  1.00  0.00    -0.313 NA
ATOM     32  H   UNL     1      -4.996   2.005   1.776  1.00  0.00     0.122 HD
BRANCH  31  33
ATOM     33  C   UNL     1      -5.218   3.181   0.127  1.00  0.00     0.109 C 
BRANCH  33  34
ATOM     34  C   UNL     1      -6.258   4.176   0.656  1.00  0.00     0.171 C 
BRANCH  34  35
ATOM     35  O   UNL     1      -6.194   4.255   2.078  1.00  0.00    -0.395 OA
ATOM     36  H   UNL     1      -6.513   3.390   2.392  1.00  0.00     0.210 HD
ENDBRANCH  34  35
ENDBRANCH  33  34
ENDBRANCH  31  33
ENDBRANCH  30  31
ENDBRANCH  29  30
ENDBRANCH  27  29
ENDBRANCH   4  27
BRANCH  10  37
ATOM     37  O   UNL     1       2.714  -5.790  -0.380  1.00  0.00    -0.507 OA
ATOM     38  H   UNL     1       3.157  -4.938  -0.167  1.00  0.00     0.293 HD
ENDBRANCH  10  37
BRANCH  13  39
ATOM     39  O   UNL     1      -2.764  -5.261  -0.525  1.00  0.00    -0.507 OA
ATOM     40  H   UNL     1      -3.046  -4.339  -0.333  1.00  0.00     0.293 HD
ENDBRANCH  13  39
TORSDOF 16
