REMARK SMILES O[C@H]([C@H](O)[C@@H](O)CBr)[C@H](O)CBr
REMARK SMILES IDX 3 1 5 2 6 3 7 5 8 6 4 7 2 9 1 10 9 12 10 13 11 15 12 16
REMARK H PARENT 6 4 4 8 1 11 10 14
ROOT
ATOM      1  C   UNL     1      -0.830   0.799   0.007  1.00  0.00     0.175 C 
ENDROOT
BRANCH   1   2
ATOM      2  C   UNL     1      -1.393  -0.532  -0.509  1.00  0.00     0.156 C 
BRANCH   2   3
ATOM      3  O   UNL     1      -1.143  -1.561   0.456  1.00  0.00    -0.389 OA
ATOM      4  H   UNL     1      -1.476  -1.185   1.301  1.00  0.00     0.211 HD
ENDBRANCH   2   3
BRANCH   2   5
ATOM      5  C   UNL     1      -2.881  -0.503  -0.863  1.00  0.00     0.115 C 
ATOM      6  Br  UNL     1      -4.049  -0.207   0.666  1.00  0.00    -0.090 Br
ENDBRANCH   2   5
ENDBRANCH   1   2
BRANCH   1   7
ATOM      7  O   UNL     1      -1.105   0.917   1.417  1.00  0.00    -0.388 OA
ATOM      8  H   UNL     1      -0.657   1.748   1.682  1.00  0.00     0.211 HD
ENDBRANCH   1   7
BRANCH   1   9
ATOM      9  C   UNL     1       0.686   1.004  -0.197  1.00  0.00     0.175 C 
BRANCH   9  10
ATOM     10  O   UNL     1       0.973   2.298   0.401  1.00  0.00    -0.388 OA
ATOM     11  H   UNL     1       1.947   2.286   0.534  1.00  0.00     0.211 HD
ENDBRANCH   9  10
BRANCH   9  12
ATOM     12  C   UNL     1       1.641  -0.022   0.465  1.00  0.00     0.156 C 
BRANCH  12  13
ATOM     13  O   UNL     1       2.903   0.660   0.682  1.00  0.00    -0.389 OA
ATOM     14  H   UNL     1       3.509   0.027   1.109  1.00  0.00     0.211 HD
ENDBRANCH  12  13
BRANCH  12  15
ATOM     15  C   UNL     1       1.894  -1.325  -0.295  1.00  0.00     0.115 C 
ATOM     16  Br  UNL     1       2.695  -1.028  -2.052  1.00  0.00    -0.090 Br
ENDBRANCH  12  15
ENDBRANCH   9  12
ENDBRANCH   1   9
TORSDOF 9
