REMARK SMILES Cc1csc(NC(=O)C(C(=O)OC(C)C)=C2SCS2)n1
REMARK SMILES IDX 9 1 16 2 17 3 18 4 19 5 10 6 11 7 12 8 13 9 14 10 15 11 7 12
REMARK SMILES IDX 8 13 6 14 5 16 20 17 4 18 2 19 3 20 1 21
REMARK H PARENT 6 15
ROOT
ATOM      1  C   UNL     1      -0.557   0.003   0.195  1.00  0.00     0.145 C 
ATOM      2  C   UNL     1      -0.796   0.772   1.272  1.00  0.00     0.062 C 
ATOM      3  S   UNL     1      -2.162   0.846   2.360  1.00  0.00    -0.107 SA
ATOM      4  C   UNL     1      -1.522   2.553   2.286  1.00  0.00     0.150 C 
ATOM      5  S   UNL     1       0.189   1.940   2.116  1.00  0.00    -0.107 SA
ENDROOT
BRANCH   1   6
ATOM      6  C   UNL     1      -1.614  -0.878  -0.311  1.00  0.00     0.345 C 
ATOM      7  O   UNL     1      -1.473  -2.085  -0.437  1.00  0.00    -0.246 OA
BRANCH   6   8
ATOM      8  O   UNL     1      -2.720  -0.159  -0.635  1.00  0.00    -0.459 OA
BRANCH   8   9
ATOM      9  C   UNL     1      -3.821  -0.907  -1.183  1.00  0.00     0.170 C 
ATOM     10  C   UNL     1      -4.650  -1.501  -0.050  1.00  0.00     0.052 C 
ATOM     11  C   UNL     1      -4.654   0.066  -2.008  1.00  0.00     0.052 C 
ENDBRANCH   8   9
ENDBRANCH   6   8
ENDBRANCH   1   6
BRANCH   1  12
ATOM     12  C   UNL     1       0.733   0.057  -0.528  1.00  0.00     0.266 C 
ATOM     13  O   UNL     1       0.708   0.159  -1.750  1.00  0.00    -0.268 OA
ATOM     14  N   UNL     1       1.843  -0.048   0.273  1.00  0.00    -0.298 N 
ATOM     15  H   UNL     1       1.743  -0.118   1.278  1.00  0.00     0.172 HD
BRANCH  14  16
ATOM     16  C   UNL     1       3.155  -0.051  -0.121  1.00  0.00     0.189 A 
ATOM     17  N   UNL     1       4.120  -0.143   0.764  1.00  0.00    -0.225 NA
ATOM     18  S   UNL     1       3.647   0.061  -1.746  1.00  0.00    -0.105 S 
ATOM     19  C   UNL     1       5.351  -0.137   0.126  1.00  0.00     0.051 A 
ATOM     20  C   UNL     1       5.283  -0.027  -1.249  1.00  0.00     0.092 A 
ATOM     21  C   UNL     1       6.582  -0.233   0.949  1.00  0.00     0.068 C 
ENDBRANCH  14  16
ENDBRANCH   1  12
TORSDOF 5
