REMARK SMILES CC(C)(O)c1ccccc1CC[C@@H](SCC1(CC(=O)O)CC1)c1cccc(/C=C/c2ccc3ccc(Cl)cc3n2)c1
REMARK SMILES IDX 13 1 12 2 11 3 10 4 5 5 6 6 9 7 7 8 8 9 2 10 1 11 3 12 4 13
REMARK SMILES IDX 14 15 15 16 16 17 21 18 22 19 17 20 18 21 19 22 20 23 23 25
REMARK SMILES IDX 41 26 24 27 27 28 25 29 26 30 28 31 29 32 30 33 40 34 31 35
REMARK SMILES IDX 39 36 32 37 38 38 33 39 36 40 34 41 35 42 37 43
REMARK H PARENT 4 14 20 24
ROOT
ATOM      1  C   UNL     1      -1.108   0.694  -0.077  1.00  0.00     0.077 C 
ENDROOT
BRANCH   1   2
ATOM      2  C   UNL     1      -1.146  -0.682   0.624  1.00  0.00     0.024 C 
BRANCH   2   3
ATOM      3  C   UNL     1      -1.468  -1.886  -0.283  1.00  0.00     0.037 C 
BRANCH   3   4
ATOM      4  C   UNL     1      -2.871  -1.897  -0.865  1.00  0.00    -0.042 A 
ATOM      5  C   UNL     1      -4.011  -2.452  -0.225  1.00  0.00    -0.014 A 
ATOM      6  C   UNL     1      -5.243  -2.377  -0.920  1.00  0.00     0.007 A 
ATOM      7  C   UNL     1      -3.012  -1.321  -2.149  1.00  0.00     0.004 A 
ATOM      8  C   UNL     1      -5.361  -1.777  -2.175  1.00  0.00     0.000 A 
ATOM      9  C   UNL     1      -4.241  -1.251  -2.794  1.00  0.00     0.000 A 
BRANCH   5  10
ATOM     10  C   UNL     1      -3.969  -3.221   1.111  1.00  0.00     0.084 C 
ATOM     11  C   UNL     1      -3.608  -4.689   0.840  1.00  0.00     0.047 C 
ATOM     12  C   UNL     1      -5.284  -3.159   1.913  1.00  0.00     0.047 C 
BRANCH  10  13
ATOM     13  O   UNL     1      -2.977  -2.674   1.983  1.00  0.00    -0.386 OA
ATOM     14  H   UNL     1      -3.013  -3.157   2.824  1.00  0.00     0.211 HD
ENDBRANCH  10  13
ENDBRANCH   5  10
ENDBRANCH   3   4
ENDBRANCH   2   3
ENDBRANCH   1   2
BRANCH   1  15
ATOM     15  S   UNL     1      -0.767   1.966   1.223  1.00  0.00    -0.153 SA
BRANCH  15  16
ATOM     16  C   UNL     1      -1.542   3.425   0.484  1.00  0.00     0.077 C 
BRANCH  16  17
ATOM     17  C   UNL     1      -3.045   3.483   0.692  1.00  0.00    -0.010 C 
ATOM     18  C   UNL     1      -3.823   4.420  -0.221  1.00  0.00     0.009 C 
ATOM     19  C   UNL     1      -3.953   2.939  -0.400  1.00  0.00     0.009 C 
BRANCH  17  20
ATOM     20  C   UNL     1      -3.544   3.369   2.132  1.00  0.00     0.130 C 
BRANCH  20  21
ATOM     21  C   UNL     1      -2.985   4.369   3.113  1.00  0.00     0.303 C 
ATOM     22  O   UNL     1      -2.896   4.203   4.321  1.00  0.00    -0.252 OA
BRANCH  21  23
ATOM     23  O   UNL     1      -2.660   5.560   2.576  1.00  0.00    -0.481 OA
ATOM     24  H   UNL     1      -2.349   6.081   3.345  1.00  0.00     0.296 HD
ENDBRANCH  21  23
ENDBRANCH  20  21
ENDBRANCH  17  20
ENDBRANCH  16  17
ENDBRANCH  15  16
ENDBRANCH   1  15
BRANCH   1  25
ATOM     25  C   UNL     1      -0.084   0.813  -1.195  1.00  0.00    -0.034 A 
ATOM     26  C   UNL     1       1.254   0.418  -1.021  1.00  0.00     0.013 A 
ATOM     27  C   UNL     1      -0.465   1.347  -2.436  1.00  0.00     0.005 A 
ATOM     28  C   UNL     1       2.192   0.539  -2.058  1.00  0.00    -0.025 A 
ATOM     29  C   UNL     1       0.454   1.454  -3.480  1.00  0.00     0.001 A 
ATOM     30  C   UNL     1       1.773   1.043  -3.293  1.00  0.00     0.008 A 
BRANCH  28  31
ATOM     31  C   UNL     1       3.590   0.110  -1.905  1.00  0.00     0.010 C 
ATOM     32  C   UNL     1       4.299   0.282  -0.776  1.00  0.00     0.029 C 
BRANCH  32  33
ATOM     33  C   UNL     1       5.697  -0.115  -0.573  1.00  0.00     0.064 A 
ATOM     34  N   UNL     1       6.020  -0.363   0.717  1.00  0.00    -0.248 NA
ATOM     35  C   UNL     1       6.629  -0.170  -1.601  1.00  0.00     0.029 A 
ATOM     36  C   UNL     1       7.287  -0.696   1.015  1.00  0.00     0.072 A 
ATOM     37  C   UNL     1       7.941  -0.515  -1.294  1.00  0.00     0.012 A 
ATOM     38  C   UNL     1       7.624  -0.959   2.334  1.00  0.00     0.049 A 
ATOM     39  C   UNL     1       8.296  -0.786   0.032  1.00  0.00     0.000 A 
ATOM     40  C   UNL     1       8.928  -1.303   2.690  1.00  0.00     0.043 A 
ATOM     41  C   UNL     1       9.610  -1.132   0.391  1.00  0.00     0.012 A 
ATOM     42  C   UNL     1       9.925  -1.389   1.723  1.00  0.00     0.021 A 
ATOM     43  Cl  UNL     1       9.309  -1.619   4.337  1.00  0.00    -0.084 Cl
ENDBRANCH  32  33
ENDBRANCH  28  31
ENDBRANCH   1  25
TORSDOF 14
