REMARK SMILES Cc1ccc(C2(O)CCN(CCCC(=O)c3ccc(F)cc3)CC2)cc1
REMARK SMILES IDX 12 1 11 2 10 3 6 4 8 5 24 6 9 7 23 8 5 9 2 10 3 11 26 12
REMARK SMILES IDX 4 13 25 14 1 15 7 16 13 18 14 19 15 20 16 21 17 22 22 23
REMARK SMILES IDX 18 24 21 25 19 26 20 27
REMARK H PARENT 7 17
ROOT
ATOM      1  C   UNL     1       2.664   0.446  -1.239  1.00  0.00     0.024 C 
ENDROOT
BRANCH   1   2
ATOM      2  C   UNL     1       1.635  -0.604  -1.698  1.00  0.00     0.085 C 
BRANCH   2   3
ATOM      3  N   UNL     1       0.297  -0.380  -1.125  1.00  0.00    -0.303 NA
ATOM      4  C   UNL     1      -2.275   0.018  -0.224  1.00  0.00     0.092 C 
ATOM      5  C   UNL     1      -1.793  -1.447  -0.369  1.00  0.00     0.056 C 
ATOM      6  C   UNL     1      -1.879   0.833  -1.466  1.00  0.00     0.056 C 
ATOM      7  C   UNL     1      -0.552  -1.567  -1.268  1.00  0.00     0.088 C 
ATOM      8  C   UNL     1      -0.360   0.811  -1.698  1.00  0.00     0.088 C 
BRANCH   4   9
ATOM      9  C   UNL     1      -3.780   0.093   0.032  1.00  0.00    -0.016 A 
ATOM     10  C   UNL     1      -6.577   0.218   0.492  1.00  0.00    -0.051 A 
ATOM     11  C   UNL     1      -5.678   0.728   1.433  1.00  0.00     0.004 A 
ATOM     12  C   UNL     1      -6.077  -0.333  -0.690  1.00  0.00     0.004 A 
ATOM     13  C   UNL     1      -4.299   0.659   1.209  1.00  0.00     0.007 A 
ATOM     14  C   UNL     1      -4.698  -0.393  -0.917  1.00  0.00     0.007 A 
ATOM     15  C   UNL     1      -8.057   0.311   0.720  1.00  0.00     0.044 C 
ENDBRANCH   4   9
BRANCH   4  16
ATOM     16  O   UNL     1      -1.573   0.591   0.897  1.00  0.00    -0.385 OA
ATOM     17  H   UNL     1      -0.636   0.340   0.765  1.00  0.00     0.211 HD
ENDBRANCH   4  16
ENDBRANCH   2   3
ENDBRANCH   1   2
BRANCH   1  18
ATOM     18  C   UNL     1       2.884   0.466   0.276  1.00  0.00     0.082 C 
BRANCH  18  19
ATOM     19  C   UNL     1       3.787  -0.671   0.723  1.00  0.00     0.162 C 
ATOM     20  O   UNL     1       3.376  -1.830   0.781  1.00  0.00    -0.294 OA
BRANCH  19  21
ATOM     21  C   UNL     1       5.202  -0.392   1.108  1.00  0.00     0.018 A 
ATOM     22  C   UNL     1       5.875  -1.355   1.879  1.00  0.00     0.015 A 
ATOM     23  C   UNL     1       5.878   0.774   0.720  1.00  0.00     0.015 A 
ATOM     24  C   UNL     1       7.197  -1.145   2.276  1.00  0.00     0.040 A 
ATOM     25  C   UNL     1       7.201   0.983   1.123  1.00  0.00     0.040 A 
ATOM     26  C   UNL     1       7.846   0.025   1.897  1.00  0.00     0.123 A 
ATOM     27  F   UNL     1       9.111   0.233   2.284  1.00  0.00    -0.207 F 
ENDBRANCH  19  21
ENDBRANCH  18  19
ENDBRANCH   1  18
TORSDOF 7
