REMARK SMILES CN1CC[C@]23c4c5ccc(O)c4O[C@H]2[C@@H](O)C=C[C@H]3[C@H]1C5
REMARK SMILES IDX 1 1 2 2 3 3 4 4 5 5 14 6 13 7 12 8 10 9 9 10 8 11 7 12 21 13
REMARK SMILES IDX 20 14 19 15 18 16 17 17 15 18 6 19 16 20 11 22
REMARK H PARENT 16 21 11 23
ROOT
ATOM      1  C   UNL     1      -3.752  -0.197   0.693  1.00  0.00     0.105 C 
ATOM      2  N   UNL     1      -2.530  -0.994   0.601  1.00  0.00    -0.302 NA
ATOM      3  C   UNL     1      -1.674  -0.816   1.784  1.00  0.00     0.085 C 
ATOM      4  C   UNL     1      -0.781   0.434   1.754  1.00  0.00     0.032 C 
ATOM      5  C   UNL     1      -0.070   0.621   0.399  1.00  0.00     0.048 C 
ATOM      6  C   UNL     1       0.959   1.777   0.420  1.00  0.00     0.217 C 
ATOM      7  O   UNL     1       2.265   1.210   0.807  1.00  0.00    -0.482 OA
ATOM      8  C   UNL     1       2.173  -0.108   0.453  1.00  0.00     0.165 A 
ATOM      9  C   UNL     1       3.219  -0.992   0.322  1.00  0.00     0.158 A 
ATOM     10  C   UNL     1       2.957  -2.277  -0.153  1.00  0.00     0.050 A 
ATOM     11  C   UNL     1       1.649  -2.641  -0.532  1.00  0.00     0.008 A 
ATOM     12  C   UNL     1       0.595  -1.731  -0.399  1.00  0.00    -0.039 A 
ATOM     13  C   UNL     1      -0.795  -1.972  -0.929  1.00  0.00     0.055 C 
ATOM     14  C   UNL     1      -1.801  -0.789  -0.683  1.00  0.00     0.068 C 
ATOM     15  C   UNL     1      -1.108   0.613  -0.732  1.00  0.00     0.044 C 
ATOM     16  C   UNL     1      -0.492   0.981  -2.064  1.00  0.00    -0.022 C 
ATOM     17  C   UNL     1       0.515   1.866  -2.137  1.00  0.00     0.004 C 
ATOM     18  C   UNL     1       1.047   2.574  -0.917  1.00  0.00     0.178 C 
ATOM     19  C   UNL     1       0.890  -0.497   0.157  1.00  0.00     0.012 A 
ENDROOT
BRANCH  18  20
ATOM     20  O   UNL     1       2.371   3.039  -1.160  1.00  0.00    -0.385 OA
ATOM     21  H   UNL     1       2.381   3.482  -2.023  1.00  0.00     0.211 HD
ENDBRANCH  18  20
BRANCH   9  22
ATOM     22  O   UNL     1       4.495  -0.621   0.612  1.00  0.00    -0.504 OA
ATOM     23  H   UNL     1       4.441   0.328   0.839  1.00  0.00     0.293 HD
ENDBRANCH   9  22
TORSDOF 2
