REMARK SMILES CCCCCCCCCCCCCC(=O)O[C@H]1C=C[C@H]2[C@H]3Cc4ccc(OCc5ccccc5)c5c4[C@@]2(CCN3C)[C@H]1O5
REMARK SMILES IDX 10 1 9 2 8 3 7 4 6 5 5 6 4 7 3 8 2 9 1 10 11 11 12 12 13 13
REMARK SMILES IDX 14 14 15 15 16 16 17 17 18 18 42 19 19 20 37 21 43 22 20 23
REMARK SMILES IDX 36 24 38 25 35 26 21 27 23 28 39 29 26 30 22 31 40 32 24 33
REMARK SMILES IDX 25 34 41 35 27 36 28 37 29 38 30 39 34 40 31 41 33 42 32 43
REMARK H PARENT
ROOT
ATOM      1  C   UNL     1       4.085   0.224   2.373  1.00  0.00     0.000 C 
ENDROOT
BRANCH   1   2
ATOM      2  C   UNL     1       5.140  -0.556   1.580  1.00  0.00     0.000 C 
BRANCH   2   3
ATOM      3  C   UNL     1       5.452  -0.022   0.179  1.00  0.00     0.000 C 
BRANCH   3   4
ATOM      4  C   UNL     1       6.182   1.323   0.202  1.00  0.00     0.000 C 
BRANCH   4   5
ATOM      5  C   UNL     1       6.500   1.867  -1.195  1.00  0.00    -0.000 C 
BRANCH   5   6
ATOM      6  C   UNL     1       7.357   0.965  -2.090  1.00  0.00    -0.000 C 
BRANCH   6   7
ATOM      7  C   UNL     1       8.684   0.492  -1.490  1.00  0.00    -0.000 C 
BRANCH   7   8
ATOM      8  C   UNL     1       9.643   1.635  -1.153  1.00  0.00    -0.000 C 
BRANCH   8   9
ATOM      9  C   UNL     1      10.961   1.100  -0.593  1.00  0.00    -0.003 C 
ATOM     10  C   UNL     1      11.928   2.227  -0.269  1.00  0.00     0.004 C 
ENDBRANCH   8   9
ENDBRANCH   7   8
ENDBRANCH   6   7
ENDBRANCH   5   6
ENDBRANCH   4   5
ENDBRANCH   3   4
ENDBRANCH   2   3
ENDBRANCH   1   2
BRANCH   1  11
ATOM     11  C   UNL     1       2.707   0.211   1.708  1.00  0.00     0.001 C 
BRANCH  11  12
ATOM     12  C   UNL     1       1.620   0.725   2.659  1.00  0.00     0.012 C 
BRANCH  12  13
ATOM     13  C   UNL     1       0.226   0.701   2.028  1.00  0.00     0.123 C 
BRANCH  13  14
ATOM     14  C   UNL     1      -0.305  -0.699   1.819  1.00  0.00     0.306 C 
ATOM     15  O   UNL     1       0.170  -1.717   2.305  1.00  0.00    -0.252 OA
BRANCH  14  16
ATOM     16  O   UNL     1      -1.402  -0.652   1.019  1.00  0.00    -0.454 OA
BRANCH  16  17
ATOM     17  C   UNL     1      -1.975  -1.916   0.634  1.00  0.00     0.241 C 
ATOM     18  C   UNL     1      -3.009  -2.343   1.650  1.00  0.00     0.017 C 
ATOM     19  C   UNL     1      -2.477  -1.842  -0.841  1.00  0.00     0.229 C 
ATOM     20  C   UNL     1      -4.028  -3.160   1.345  1.00  0.00    -0.021 C 
ATOM     21  C   UNL     1      -3.783  -2.623  -1.114  1.00  0.00     0.049 C 
ATOM     22  O   UNL     1      -2.676  -0.459  -1.291  1.00  0.00    -0.481 OA
ATOM     23  C   UNL     1      -4.236  -3.654  -0.070  1.00  0.00     0.044 C 
ATOM     24  C   UNL     1      -4.718  -1.451  -1.041  1.00  0.00     0.012 A 
ATOM     25  C   UNL     1      -3.835  -3.231  -2.537  1.00  0.00     0.032 C 
ATOM     26  C   UNL     1      -4.032  -0.264  -1.201  1.00  0.00     0.166 A 
ATOM     27  C   UNL     1      -5.718  -4.018  -0.437  1.00  0.00     0.068 C 
ATOM     28  C   UNL     1      -6.069  -1.492  -0.741  1.00  0.00    -0.039 A 
ATOM     29  C   UNL     1      -4.612  -4.557  -2.591  1.00  0.00     0.085 C 
ATOM     30  C   UNL     1      -4.689   0.954  -1.209  1.00  0.00     0.162 A 
ATOM     31  C   UNL     1      -6.678  -2.794  -0.291  1.00  0.00     0.055 C 
ATOM     32  N   UNL     1      -5.861  -4.514  -1.833  1.00  0.00    -0.302 NA
ATOM     33  C   UNL     1      -6.756  -0.278  -0.733  1.00  0.00     0.008 A 
ATOM     34  C   UNL     1      -6.074   0.933  -0.984  1.00  0.00     0.051 A 
ATOM     35  C   UNL     1      -6.555  -5.801  -1.887  1.00  0.00     0.105 C 
BRANCH  30  36
ATOM     36  O   UNL     1      -3.919   2.070  -1.371  1.00  0.00    -0.485 OA
BRANCH  36  37
ATOM     37  C   UNL     1      -4.570   3.280  -1.764  1.00  0.00     0.265 C 
BRANCH  37  38
ATOM     38  C   UNL     1      -5.066   4.119  -0.605  1.00  0.00    -0.011 A 
ATOM     39  C   UNL     1      -4.520   3.997   0.681  1.00  0.00     0.007 A 
ATOM     40  C   UNL     1      -6.065   5.080  -0.825  1.00  0.00     0.007 A 
ATOM     41  C   UNL     1      -4.980   4.799   1.727  1.00  0.00     0.000 A 
ATOM     42  C   UNL     1      -6.522   5.884   0.222  1.00  0.00     0.000 A 
ATOM     43  C   UNL     1      -5.980   5.742   1.499  1.00  0.00     0.000 A 
ENDBRANCH  37  38
ENDBRANCH  36  37
ENDBRANCH  30  36
ENDBRANCH  16  17
ENDBRANCH  14  16
ENDBRANCH  13  14
ENDBRANCH  12  13
ENDBRANCH  11  12
ENDBRANCH   1  11
TORSDOF 17
