REMARK SMILES CC(=O)N[C@@H]1[C@@H](O)[C@H](O)[C@@H](CO)O[C@H]1O
REMARK SMILES IDX 5 1 14 2 13 3 10 4 8 5 6 6 4 7 2 8 3 9 1 10 15 12 7 14 9 16
REMARK SMILES IDX 11 18 12 19
REMARK H PARENT 4 11 15 13 7 15 9 17 12 20
ROOT
ATOM      1  C   UNL     1      -0.665   0.052  -0.410  1.00  0.00     0.169 C 
ATOM      2  C   UNL     1       0.043   1.247   0.292  1.00  0.00     0.272 C 
ATOM      3  O   UNL     1       1.451   1.184   0.046  1.00  0.00    -0.342 OA
ATOM      4  C   UNL     1       2.064   0.011   0.601  1.00  0.00     0.178 C 
ATOM      5  C   UNL     1       1.478  -1.251  -0.043  1.00  0.00     0.176 C 
ATOM      6  C   UNL     1      -0.045  -1.244   0.137  1.00  0.00     0.173 C 
ENDROOT
BRANCH   1   7
ATOM      7  N   UNL     1      -2.125   0.013  -0.239  1.00  0.00    -0.346 N 
ATOM      8  C   UNL     1      -2.937   0.887  -0.922  1.00  0.00     0.217 C 
ATOM      9  O   UNL     1      -2.497   1.824  -1.582  1.00  0.00    -0.275 OA
ATOM     10  C   UNL     1      -4.408   0.594  -0.808  1.00  0.00     0.114 C 
ATOM     11  H   UNL     1      -2.507  -0.917  -0.095  1.00  0.00     0.164 HD
ENDBRANCH   1   7
BRANCH   2  12
ATOM     12  O   UNL     1      -0.395   2.521  -0.149  1.00  0.00    -0.366 OA
ATOM     13  H   UNL     1      -0.996   2.390  -0.912  1.00  0.00     0.213 HD
ENDBRANCH   2  12
BRANCH   6  14
ATOM     14  O   UNL     1      -0.618  -2.381  -0.529  1.00  0.00    -0.388 OA
ATOM     15  H   UNL     1      -0.071  -3.143  -0.248  1.00  0.00     0.211 HD
ENDBRANCH   6  14
BRANCH   5  16
ATOM     16  O   UNL     1       1.975  -2.455   0.551  1.00  0.00    -0.388 OA
ATOM     17  H   UNL     1       2.893  -2.586   0.251  1.00  0.00     0.211 HD
ENDBRANCH   5  16
BRANCH   4  18
ATOM     18  C   UNL     1       3.569   0.136   0.347  1.00  0.00     0.191 C 
BRANCH  18  19
ATOM     19  O   UNL     1       4.062   1.323   0.966  1.00  0.00    -0.394 OA
ATOM     20  H   UNL     1       3.452   2.038   0.692  1.00  0.00     0.210 HD
ENDBRANCH  18  19
ENDBRANCH   4  18
TORSDOF 6
