REMARK SMILES CC(=O)N[C@@H](Cc1ccc(O)cc1)C(=O)O
REMARK SMILES IDX 5 1 4 2 2 3 3 4 1 5 6 7 7 8 8 9 13 10 9 11 12 12 10 13 11 14
REMARK SMILES IDX 14 16 15 17 16 18
REMARK H PARENT 4 6 11 15 16 19
ROOT
ATOM      1  C   UNL     1      -1.091   0.142  -0.040  1.00  0.00     0.196 C 
ENDROOT
BRANCH   1   2
ATOM      2  N   UNL     1      -2.472  -0.151  -0.452  1.00  0.00    -0.343 N 
ATOM      3  C   UNL     1      -3.519   0.077   0.412  1.00  0.00     0.217 C 
ATOM      4  O   UNL     1      -3.374   0.381   1.591  1.00  0.00    -0.275 OA
ATOM      5  C   UNL     1      -4.878  -0.068  -0.218  1.00  0.00     0.114 C 
ATOM      6  H   UNL     1      -2.672  -0.027  -1.438  1.00  0.00     0.164 HD
ENDBRANCH   1   2
BRANCH   1   7
ATOM      7  C   UNL     1      -0.117  -0.795  -0.766  1.00  0.00     0.072 C 
BRANCH   7   8
ATOM      8  C   UNL     1       1.312  -0.682  -0.292  1.00  0.00    -0.045 A 
ATOM      9  C   UNL     1       2.282  -0.061  -1.093  1.00  0.00     0.007 A 
ATOM     10  C   UNL     1       1.686  -1.189   0.961  1.00  0.00     0.007 A 
ATOM     11  C   UNL     1       3.602   0.050  -0.651  1.00  0.00     0.046 A 
ATOM     12  C   UNL     1       3.005  -1.078   1.402  1.00  0.00     0.046 A 
ATOM     13  C   UNL     1       3.952  -0.461   0.594  1.00  0.00     0.115 A 
BRANCH  13  14
ATOM     14  O   UNL     1       5.229  -0.375   1.064  1.00  0.00    -0.508 OA
ATOM     15  H   UNL     1       5.773   0.079   0.400  1.00  0.00     0.293 HD
ENDBRANCH  13  14
ENDBRANCH   7   8
ENDBRANCH   1   7
BRANCH   1  16
ATOM     16  C   UNL     1      -0.810   1.591  -0.429  1.00  0.00     0.326 C 
ATOM     17  O   UNL     1      -1.181   2.135  -1.461  1.00  0.00    -0.250 OA
BRANCH  16  18
ATOM     18  O   UNL     1      -0.074   2.263   0.475  1.00  0.00    -0.480 OA
ATOM     19  H   UNL     1       0.011   3.168   0.113  1.00  0.00     0.296 HD
ENDBRANCH  16  18
ENDBRANCH   1  16
TORSDOF 6
