REMARK SMILES CN(C/C=C/c1ccccc1)Cc1cccc2ccccc12
REMARK SMILES IDX 1 1 2 2 3 3 4 4 5 5 6 6 7 7 11 8 8 9 10 10 9 11 12 12 13 13
REMARK SMILES IDX 14 14 22 15 15 16 21 17 17 18 16 19 20 20 18 21 19 22
REMARK H PARENT
ROOT
ATOM      1  C   UNL     1      -0.264   0.926  -1.013  1.00  0.00     0.106 C 
ATOM      2  N   UNL     1      -0.035   1.392   0.353  1.00  0.00    -0.298 NA
ENDROOT
BRANCH   2   3
ATOM      3  C   UNL     1       0.731   0.423   1.140  1.00  0.00     0.112 C 
BRANCH   3   4
ATOM      4  C   UNL     1       2.166   0.362   0.699  1.00  0.00    -0.011 C 
ATOM      5  C   UNL     1       2.792  -0.769   0.335  1.00  0.00     0.005 C 
BRANCH   5   6
ATOM      6  C   UNL     1       4.197  -0.835  -0.092  1.00  0.00    -0.026 A 
ATOM      7  C   UNL     1       4.789   0.168  -0.871  1.00  0.00     0.008 A 
ATOM      8  C   UNL     1       4.955  -1.965   0.242  1.00  0.00     0.008 A 
ATOM      9  C   UNL     1       6.119   0.055  -1.284  1.00  0.00     0.001 A 
ATOM     10  C   UNL     1       6.285  -2.077  -0.171  1.00  0.00     0.001 A 
ATOM     11  C   UNL     1       6.867  -1.066  -0.932  1.00  0.00     0.000 A 
ENDBRANCH   5   6
ENDBRANCH   3   4
ENDBRANCH   2   3
BRANCH   2  12
ATOM     12  C   UNL     1      -1.274   1.832   1.023  1.00  0.00     0.120 C 
BRANCH  12  13
ATOM     13  C   UNL     1      -2.356   0.786   1.263  1.00  0.00    -0.026 A 
ATOM     14  C   UNL     1      -2.253  -0.001   2.428  1.00  0.00     0.006 A 
ATOM     15  C   UNL     1      -3.459   0.582   0.379  1.00  0.00    -0.014 A 
ATOM     16  C   UNL     1      -3.184  -0.992   2.715  1.00  0.00     0.001 A 
ATOM     17  C   UNL     1      -3.696   1.338  -0.795  1.00  0.00     0.009 A 
ATOM     18  C   UNL     1      -4.398  -0.439   0.686  1.00  0.00    -0.018 A 
ATOM     19  C   UNL     1      -4.245  -1.212   1.845  1.00  0.00     0.009 A 
ATOM     20  C   UNL     1      -4.788   1.090  -1.631  1.00  0.00     0.001 A 
ATOM     21  C   UNL     1      -5.491  -0.678  -0.165  1.00  0.00     0.009 A 
ATOM     22  C   UNL     1      -5.684   0.079  -1.317  1.00  0.00     0.001 A 
ENDBRANCH  12  13
ENDBRANCH   2  12
TORSDOF 5
