REMARK SMILES Oc1ccc2c3c1O[C@H]1[C@@H](O)CC[C@@]4(O)[C@@H](C2)N(CC2CCC2)CC[C@]314
REMARK SMILES IDX 10 1 12 2 13 3 14 4 16 5 17 6 5 7 4 8 3 9 2 10 7 11 6 12
REMARK SMILES IDX 26 13 25 14 24 15 18 16 9 17 8 18 11 19 15 21 1 23 19 25
REMARK SMILES IDX 20 26 21 27 23 28 22 29
REMARK H PARENT 11 20 15 22 1 24
ROOT
ATOM      1  C   UNL     1      -3.665  -1.695  -0.046  1.00  0.00     0.156 C 
ATOM      2  C   UNL     1      -2.858  -2.620  -0.954  1.00  0.00     0.039 C 
ATOM      3  C   UNL     1      -1.677  -1.868  -1.592  1.00  0.00     0.041 C 
ATOM      4  C   UNL     1      -0.708  -1.389  -0.508  1.00  0.00     0.094 C 
ATOM      5  C   UNL     1       0.480  -0.504  -1.021  1.00  0.00     0.094 C 
ATOM      6  C   UNL     1       0.015   0.888  -1.579  1.00  0.00     0.058 C 
ATOM      7  C   UNL     1      -1.118   1.525  -0.819  1.00  0.00    -0.038 A 
ATOM      8  C   UNL     1      -1.622   2.803  -1.062  1.00  0.00     0.008 A 
ATOM      9  C   UNL     1      -2.753   3.272  -0.354  1.00  0.00     0.050 A 
ATOM     10  C   UNL     1      -3.413   2.454   0.574  1.00  0.00     0.158 A 
ATOM     11  C   UNL     1      -2.920   1.189   0.791  1.00  0.00     0.165 A 
ATOM     12  C   UNL     1      -1.773   0.774   0.137  1.00  0.00     0.014 A 
ATOM     13  C   UNL     1      -1.386  -0.584   0.605  1.00  0.00     0.070 C 
ATOM     14  C   UNL     1      -0.396  -0.407   1.782  1.00  0.00     0.034 C 
ATOM     15  C   UNL     1       0.952   0.181   1.319  1.00  0.00     0.086 C 
ATOM     16  N   UNL     1       1.486  -0.461   0.100  1.00  0.00    -0.297 NA
ATOM     17  C   UNL     1      -2.788  -1.023   1.056  1.00  0.00     0.215 C 
ATOM     18  O   UNL     1      -3.460   0.183   1.568  1.00  0.00    -0.482 OA
ENDROOT
BRANCH   1  19
ATOM     19  O   UNL     1      -4.300  -0.741  -0.907  1.00  0.00    -0.389 OA
ATOM     20  H   UNL     1      -5.105  -1.156  -1.259  1.00  0.00     0.211 HD
ENDBRANCH   1  19
BRANCH   4  21
ATOM     21  O   UNL     1      -0.144  -2.603   0.050  1.00  0.00    -0.387 OA
ATOM     22  H   UNL     1       0.762  -2.347   0.334  1.00  0.00     0.211 HD
ENDBRANCH   4  21
BRANCH  10  23
ATOM     23  O   UNL     1      -4.526   2.879   1.233  1.00  0.00    -0.504 OA
ATOM     24  H   UNL     1      -4.775   3.750   0.889  1.00  0.00     0.293 HD
ENDBRANCH  10  23
BRANCH  16  25
ATOM     25  C   UNL     1       2.760   0.143  -0.332  1.00  0.00     0.088 C 
BRANCH  25  26
ATOM     26  C   UNL     1       3.937  -0.342   0.514  1.00  0.00     0.003 C 
ATOM     27  C   UNL     1       5.326   0.139   0.008  1.00  0.00     0.005 C 
ATOM     28  C   UNL     1       4.275   0.401   1.838  1.00  0.00     0.005 C 
ATOM     29  C   UNL     1       5.763   0.211   1.484  1.00  0.00     0.001 C 
ENDBRANCH  25  26
ENDBRANCH  16  25
TORSDOF 5
