REMARK SMILES COc1ccc2cc([C@H](C)C(=O)OCCCCO[N+](=O)[O-])ccc2c1
REMARK SMILES IDX 14 1 13 2 11 3 12 4 9 5 10 6 8 7 3 8 4 9 25 10 5 11 24 12
REMARK SMILES IDX 6 13 23 14 7 15 22 16 2 17 1 18 15 19 16 20 17 21 18 22
REMARK SMILES IDX 19 23 20 24 21 25
REMARK H PARENT
ROOT
ATOM      1  C   UNL     1      -2.370   0.474  -1.255  1.00  0.00     0.233 C 
ENDROOT
BRANCH   1   2
ATOM      2  O   UNL     1      -1.561   0.560  -0.072  1.00  0.00    -0.465 OA
BRANCH   2   3
ATOM      3  C   UNL     1      -1.398  -0.606   0.621  1.00  0.00     0.313 C 
ATOM      4  O   UNL     1      -1.921  -1.673   0.325  1.00  0.00    -0.252 OA
BRANCH   3   5
ATOM      5  C   UNL     1      -0.467  -0.385   1.806  1.00  0.00     0.126 C 
ATOM      6  C   UNL     1      -0.729  -1.420   2.902  1.00  0.00     0.025 C 
BRANCH   5   7
ATOM      7  C   UNL     1       0.991  -0.375   1.381  1.00  0.00    -0.033 A 
ATOM      8  C   UNL     1       5.840   0.853   0.432  1.00  0.00     0.119 A 
ATOM      9  C   UNL     1       5.261   1.963   1.045  1.00  0.00     0.047 A 
ATOM     10  C   UNL     1       5.064  -0.286   0.209  1.00  0.00     0.055 A 
ATOM     11  C   UNL     1       3.920   1.943   1.435  1.00  0.00     0.012 A 
ATOM     12  C   UNL     1       3.711  -0.323   0.595  1.00  0.00    -0.015 A 
ATOM     13  C   UNL     1       3.131   0.805   1.216  1.00  0.00    -0.018 A 
ATOM     14  C   UNL     1       2.919  -1.461   0.376  1.00  0.00     0.009 A 
ATOM     15  C   UNL     1       1.780   0.765   1.601  1.00  0.00     0.013 A 
ATOM     16  C   UNL     1       1.577  -1.487   0.763  1.00  0.00     0.005 A 
BRANCH   8  17
ATOM     17  O   UNL     1       7.159   1.008   0.102  1.00  0.00    -0.497 OA
ATOM     18  C   UNL     1       7.801  -0.096  -0.523  1.00  0.00     0.278 C 
ENDBRANCH   8  17
ENDBRANCH   5   7
ENDBRANCH   3   5
ENDBRANCH   2   3
ENDBRANCH   1   2
BRANCH   1  19
ATOM     19  C   UNL     1      -3.843   0.643  -0.894  1.00  0.00     0.044 C 
BRANCH  19  20
ATOM     20  C   UNL     1      -4.733   0.597  -2.132  1.00  0.00     0.031 C 
BRANCH  20  21
ATOM     21  C   UNL     1      -6.208   0.754  -1.773  1.00  0.00     0.208 C 
BRANCH  21  22
ATOM     22  O   UNL     1      -6.958   0.706  -2.984  1.00  0.00    -0.314 OA
BRANCH  22  23
ATOM     23  N   UNL     1      -8.350   0.849  -2.768  1.00  0.00     0.294 N 
ATOM     24  O   UNL     1      -8.729   0.996  -1.605  1.00  0.00    -0.109 OA
ATOM     25  O   UNL     1      -9.000   0.806  -3.810  1.00  0.00    -0.109 OA
ENDBRANCH  22  23
ENDBRANCH  21  22
ENDBRANCH  20  21
ENDBRANCH  19  20
ENDBRANCH   1  19
TORSDOF 10
