REMARK SMILES CNS(=O)(=O)CCc1ccc2[nH]cc(C3CCN(C)CC3)c2c1
REMARK SMILES IDX 6 1 3 2 4 3 5 4 2 5 1 6 7 8 8 9 9 10 23 11 10 12 22 13 11 14
REMARK SMILES IDX 14 15 12 16 13 17 15 19 16 20 21 21 17 22 20 23 18 24 19 25
REMARK H PARENT 2 7 12 18
ROOT
ATOM      1  C   UNL     1       3.590  -1.364   0.955  1.00  0.00     0.158 C 
ENDROOT
BRANCH   1   2
ATOM      2  S   UNL     1       5.167  -1.168   1.769  1.00  0.00     0.211 S 
ATOM      3  O   UNL     1       6.233  -1.320   0.805  1.00  0.00    -0.212 OA
ATOM      4  O   UNL     1       5.133  -1.947   2.987  1.00  0.00    -0.212 OA
BRANCH   2   5
ATOM      5  N   UNL     1       5.118   0.435   2.277  1.00  0.00    -0.218 NA
ATOM      6  C   UNL     1       5.956   1.399   1.558  1.00  0.00     0.120 C 
ATOM      7  H   UNL     1       5.189   0.478   3.297  1.00  0.00     0.140 HD
ENDBRANCH   2   5
ENDBRANCH   1   2
BRANCH   1   8
ATOM      8  C   UNL     1       3.459  -0.486  -0.277  1.00  0.00     0.053 C 
BRANCH   8   9
ATOM      9  C   UNL     1       2.152  -0.739  -0.989  1.00  0.00    -0.046 A 
ATOM     10  C   UNL     1       2.081  -1.679  -2.022  1.00  0.00     0.006 A 
ATOM     11  C   UNL     1       0.991  -0.051  -0.593  1.00  0.00     0.014 A 
ATOM     12  C   UNL     1       0.877  -1.946  -2.681  1.00  0.00     0.027 A 
ATOM     13  C   UNL     1      -0.238  -0.304  -1.240  1.00  0.00     0.003 A 
ATOM     14  C   UNL     1      -0.260  -1.244  -2.268  1.00  0.00     0.046 A 
ATOM     15  C   UNL     1      -1.574   0.210  -1.083  1.00  0.00    -0.019 A 
ATOM     16  N   UNL     1      -1.552  -1.303  -2.730  1.00  0.00    -0.361 N 
ATOM     17  C   UNL     1      -2.347  -0.434  -2.031  1.00  0.00     0.087 A 
ATOM     18  H   UNL     1      -1.863  -1.900  -3.483  1.00  0.00     0.166 HD
BRANCH  15  19
ATOM     19  C   UNL     1      -1.990   1.258  -0.068  1.00  0.00     0.024 C 
ATOM     20  C   UNL     1      -2.097   0.681   1.351  1.00  0.00     0.024 C 
ATOM     21  C   UNL     1      -3.259   2.046  -0.424  1.00  0.00     0.024 C 
ATOM     22  C   UNL     1      -3.425  -0.033   1.592  1.00  0.00     0.085 C 
ATOM     23  C   UNL     1      -4.559   1.327  -0.049  1.00  0.00     0.085 C 
ATOM     24  N   UNL     1      -4.549   0.881   1.350  1.00  0.00    -0.306 NA
ATOM     25  C   UNL     1      -5.816   0.233   1.688  1.00  0.00     0.105 C 
ENDBRANCH  15  19
ENDBRANCH   8   9
ENDBRANCH   1   8
TORSDOF 5
