REMARK SMILES C=CCC1(CC(C)(C)C)C(=O)NC(=O)NC1=O
REMARK SMILES IDX 4 1 10 2 11 3 12 4 13 5 14 6 15 7 16 8 17 9 5 12 6 13 7 14
REMARK SMILES IDX 8 15 9 16 3 17 2 18 1 19
REMARK H PARENT 12 10 15 11
ROOT
ATOM      1  C   UNL     1      -0.724  -0.104  -0.032  1.00  0.00     0.132 C 
ATOM      2  C   UNL     1      -1.689  -0.565  -1.128  1.00  0.00     0.244 C 
ATOM      3  O   UNL     1      -2.003   0.119  -2.100  1.00  0.00    -0.273 OA
ATOM      4  N   UNL     1      -2.123  -1.862  -1.048  1.00  0.00    -0.277 N 
ATOM      5  C   UNL     1      -2.093  -2.634   0.071  1.00  0.00     0.328 C 
ATOM      6  O   UNL     1      -2.790  -3.637   0.176  1.00  0.00    -0.248 OA
ATOM      7  N   UNL     1      -1.318  -2.198   1.098  1.00  0.00    -0.277 N 
ATOM      8  C   UNL     1      -1.002  -0.878   1.254  1.00  0.00     0.244 C 
ATOM      9  O   UNL     1      -0.931  -0.400   2.384  1.00  0.00    -0.273 OA
ATOM     10  H   UNL     1      -2.773  -2.152  -1.765  1.00  0.00     0.174 HD
ATOM     11  H   UNL     1      -1.489  -2.693   1.964  1.00  0.00     0.174 HD
ENDROOT
BRANCH   1  12
ATOM     12  C   UNL     1       0.691  -0.506  -0.582  1.00  0.00     0.033 C 
BRANCH  12  13
ATOM     13  C   UNL     1       2.026   0.035   0.021  1.00  0.00    -0.037 C 
ATOM     14  C   UNL     1       3.169  -0.836  -0.561  1.00  0.00     0.011 C 
ATOM     15  C   UNL     1       2.095  -0.076   1.548  1.00  0.00     0.011 C 
ATOM     16  C   UNL     1       2.314   1.485  -0.409  1.00  0.00     0.011 C 
ENDBRANCH  12  13
ENDBRANCH   1  12
BRANCH   1  17
ATOM     17  C   UNL     1      -0.901   1.413   0.187  1.00  0.00     0.053 C 
BRANCH  17  18
ATOM     18  C   UNL     1      -2.285   1.839   0.626  1.00  0.00    -0.033 C 
ATOM     19  C   UNL     1      -3.145   2.511  -0.148  1.00  0.00     0.004 C 
ENDBRANCH  17  18
ENDBRANCH   1  17
TORSDOF 4
