REMARK SMILES Cc1c(O)cccc1C(=O)N[C@@H](CSc1ccccc1)[C@H](O)CN1C[C@H]2CCCC[C@H]2C[C@H]1C(=O)NC(C)(C)C
REMARK SMILES IDX 21 1 12 2 11 3 9 4 10 5 8 7 2 8 3 9 7 10 5 11 6 12 1 13 4 14
REMARK SMILES IDX 13 16 14 17 15 18 16 19 20 20 17 21 19 22 18 23 22 24 23 26
REMARK SMILES IDX 24 27 25 28 33 29 26 30 32 31 27 32 31 33 28 34 30 35 29 36
REMARK SMILES IDX 34 37 35 38 36 39 37 41 38 42 39 43 40 44
REMARK H PARENT 11 6 4 15 22 25 36 40
ROOT
ATOM      1  C   UNL     1       0.636  -0.402  -0.153  1.00  0.00     0.151 C 
ENDROOT
BRANCH   1   2
ATOM      2  C   UNL     1       1.829   0.105   0.713  1.00  0.00     0.122 C 
BRANCH   2   3
ATOM      3  N   UNL     1       2.920  -0.882   0.739  1.00  0.00    -0.346 N 
ATOM      4  C   UNL     1       2.852  -2.034   1.490  1.00  0.00     0.252 C 
ATOM      5  O   UNL     1       1.891  -2.331   2.188  1.00  0.00    -0.269 OA
ATOM      6  H   UNL     1       3.753  -0.672   0.198  1.00  0.00     0.164 HD
BRANCH   4   7
ATOM      7  C   UNL     1       4.044  -2.920   1.406  1.00  0.00     0.046 A 
ATOM      8  C   UNL     1       4.638  -3.459   2.567  1.00  0.00     0.003 A 
ATOM      9  C   UNL     1       5.707  -4.350   2.391  1.00  0.00     0.119 A 
ATOM     10  C   UNL     1       4.543  -3.234   0.129  1.00  0.00     0.014 A 
ATOM     11  C   UNL     1       6.212  -4.649   1.125  1.00  0.00     0.046 A 
ATOM     12  C   UNL     1       5.634  -4.088  -0.009  1.00  0.00     0.005 A 
ATOM     13  C   UNL     1       4.142  -3.112   3.945  1.00  0.00     0.049 C 
BRANCH   9  14
ATOM     14  O   UNL     1       6.321  -4.987   3.433  1.00  0.00    -0.508 OA
ATOM     15  H   UNL     1       5.742  -4.967   4.212  1.00  0.00     0.293 HD
ENDBRANCH   9  14
ENDBRANCH   4   7
ENDBRANCH   2   3
BRANCH   2  16
ATOM     16  C   UNL     1       2.374   1.505   0.351  1.00  0.00     0.102 C 
BRANCH  16  17
ATOM     17  S   UNL     1       3.348   1.560  -1.200  1.00  0.00    -0.124 SA
BRANCH  17  18
ATOM     18  C   UNL     1       3.644   3.316  -1.293  1.00  0.00     0.007 A 
ATOM     19  C   UNL     1       2.593   4.213  -1.506  1.00  0.00     0.015 A 
ATOM     20  C   UNL     1       4.949   3.804  -1.172  1.00  0.00     0.015 A 
ATOM     21  C   UNL     1       2.841   5.586  -1.573  1.00  0.00     0.001 A 
ATOM     22  C   UNL     1       5.196   5.177  -1.240  1.00  0.00     0.001 A 
ATOM     23  C   UNL     1       4.142   6.067  -1.437  1.00  0.00     0.000 A 
ENDBRANCH  17  18
ENDBRANCH  16  17
ENDBRANCH   2  16
ENDBRANCH   1   2
BRANCH   1  24
ATOM     24  O   UNL     1       1.110  -0.772  -1.456  1.00  0.00    -0.390 OA
ATOM     25  H   UNL     1       1.816  -1.424  -1.301  1.00  0.00     0.211 HD
ENDBRANCH   1  24
BRANCH   1  26
ATOM     26  C   UNL     1      -0.491   0.653  -0.292  1.00  0.00     0.119 C 
BRANCH  26  27
ATOM     27  N   UNL     1      -1.861   0.129  -0.524  1.00  0.00    -0.289 NA
ATOM     28  C   UNL     1      -1.997  -0.701  -1.731  1.00  0.00     0.089 C 
ATOM     29  C   UNL     1      -2.836   1.270  -0.504  1.00  0.00     0.147 C 
ATOM     30  C   UNL     1      -2.282   0.103  -3.012  1.00  0.00     0.006 C 
ATOM     31  C   UNL     1      -4.043   1.039  -1.418  1.00  0.00     0.033 C 
ATOM     32  C   UNL     1      -2.291  -0.797  -4.255  1.00  0.00     0.005 C 
ATOM     33  C   UNL     1      -3.591   0.924  -2.885  1.00  0.00    -0.005 C 
ATOM     34  C   UNL     1      -3.489  -1.742  -4.312  1.00  0.00     0.000 C 
ATOM     35  C   UNL     1      -4.731   0.405  -3.778  1.00  0.00     0.004 C 
ATOM     36  C   UNL     1      -4.790  -1.117  -3.810  1.00  0.00     0.000 C 
BRANCH  29  37
ATOM     37  C   UNL     1      -3.332   1.493   0.940  1.00  0.00     0.237 C 
ATOM     38  O   UNL     1      -3.641   2.603   1.356  1.00  0.00    -0.273 OA
ATOM     39  N   UNL     1      -3.433   0.323   1.667  1.00  0.00    -0.350 N 
ATOM     40  H   UNL     1      -2.898  -0.433   1.242  1.00  0.00     0.164 HD
BRANCH  39  41
ATOM     41  C   UNL     1      -3.725   0.243   3.100  1.00  0.00     0.032 C 
ATOM     42  C   UNL     1      -3.807  -1.246   3.481  1.00  0.00     0.034 C 
ATOM     43  C   UNL     1      -2.601   0.902   3.912  1.00  0.00     0.034 C 
ATOM     44  C   UNL     1      -5.073   0.898   3.440  1.00  0.00     0.034 C 
ENDBRANCH  39  41
ENDBRANCH  29  37
ENDBRANCH  26  27
ENDBRANCH   1  26
TORSDOF 12
