REMARK SMILES CN(C)C(=O)Oc1cccc([N+](C)(C)C)c1
REMARK SMILES IDX 7 1 16 2 11 3 10 4 9 5 8 6 6 7 4 8 2 9 5 10 1 11 3 12 12 13
REMARK SMILES IDX 13 14 14 15 15 16
REMARK H PARENT
ROOT
ATOM      1  C   UNL     1       0.619  -0.372   1.218  1.00  0.00     0.138 A 
ATOM      2  C   UNL     1      -0.416   0.102   0.409  1.00  0.00     0.115 A 
ATOM      3  C   UNL     1      -1.684  -0.494   0.459  1.00  0.00     0.135 A 
ATOM      4  C   UNL     1      -1.897  -1.525   1.387  1.00  0.00     0.068 A 
ATOM      5  C   UNL     1      -0.864  -1.960   2.228  1.00  0.00     0.010 A 
ATOM      6  C   UNL     1       0.399  -1.384   2.144  1.00  0.00     0.048 A 
ENDROOT
BRANCH   1   7
ATOM      7  O   UNL     1       1.909   0.182   1.171  1.00  0.00    -0.410 OA
BRANCH   7   8
ATOM      8  C   UNL     1       2.526   0.287  -0.080  1.00  0.00     0.414 C 
ATOM      9  N   UNL     1       3.803   0.823  -0.005  1.00  0.00    -0.314 N 
ATOM     10  O   UNL     1       1.986  -0.052  -1.130  1.00  0.00    -0.224 OA
ATOM     11  C   UNL     1       4.627   0.846  -1.200  1.00  0.00     0.150 C 
ATOM     12  C   UNL     1       4.483   1.063   1.258  1.00  0.00     0.150 C 
ENDBRANCH   7   8
ENDBRANCH   1   7
BRANCH   3  13
ATOM     13  N   UNL     1      -2.765  -0.015  -0.497  1.00  0.00    -0.298 N 
ATOM     14  C   UNL     1      -4.062  -0.801  -0.353  1.00  0.00     0.340 C 
ATOM     15  C   UNL     1      -3.061   1.452  -0.211  1.00  0.00     0.340 C 
ATOM     16  C   UNL     1      -2.261  -0.202  -1.930  1.00  0.00     0.340 C 
ENDBRANCH   3  13
TORSDOF 3
