REMARK SMILES Cc1ccc(C(=O)OCc2ccc([C@@H](CN)C(=O)Nc3ccc4cnccc4c3)cc2)c(C)c1
REMARK SMILES IDX 10 1 11 2 12 3 13 4 30 5 31 6 9 7 8 8 6 9 7 10 5 11 2 12
REMARK SMILES IDX 3 13 34 14 4 15 32 16 1 17 33 18 14 19 15 20 16 21 17 24
REMARK SMILES IDX 18 25 19 26 20 28 29 29 21 30 28 31 22 32 23 33 27 34 24 35
REMARK SMILES IDX 26 36 25 37
REMARK H PARENT 16 22 16 23 19 27
ROOT
ATOM      1  C   UNL     1       1.169   0.477   0.793  1.00  0.00    -0.011 A 
ATOM      2  C   UNL     1       0.477   1.637   0.428  1.00  0.00     0.007 A 
ATOM      3  C   UNL     1      -0.500   1.594  -0.569  1.00  0.00     0.005 A 
ATOM      4  C   UNL     1      -0.808   0.393  -1.231  1.00  0.00    -0.034 A 
ATOM      5  C   UNL     1      -0.111  -0.766  -0.862  1.00  0.00     0.005 A 
ATOM      6  C   UNL     1       0.868  -0.722   0.136  1.00  0.00     0.007 A 
ENDROOT
BRANCH   1   7
ATOM      7  C   UNL     1       2.242   0.518   1.851  1.00  0.00     0.269 C 
BRANCH   7   8
ATOM      8  O   UNL     1       3.500   0.324   1.201  1.00  0.00    -0.457 OA
BRANCH   8   9
ATOM      9  C   UNL     1       4.567   0.455   2.020  1.00  0.00     0.338 C 
ATOM     10  O   UNL     1       4.528   0.668   3.221  1.00  0.00    -0.246 OA
BRANCH   9  11
ATOM     11  C   UNL     1       5.824   0.209   1.267  1.00  0.00     0.063 A 
ATOM     12  C   UNL     1       8.275  -0.385   0.020  1.00  0.00    -0.051 A 
ATOM     13  C   UNL     1       8.029  -0.816   1.326  1.00  0.00     0.004 A 
ATOM     14  C   UNL     1       7.285   0.340  -0.659  1.00  0.00     0.007 A 
ATOM     15  C   UNL     1       6.816  -0.515   1.947  1.00  0.00     0.016 A 
ATOM     16  C   UNL     1       6.062   0.667  -0.044  1.00  0.00    -0.036 A 
ATOM     17  C   UNL     1       9.562  -0.741  -0.665  1.00  0.00     0.044 C 
ATOM     18  C   UNL     1       5.065   1.480  -0.824  1.00  0.00     0.045 C 
ENDBRANCH   9  11
ENDBRANCH   8   9
ENDBRANCH   7   8
ENDBRANCH   1   7
BRANCH   4  19
ATOM     19  C   UNL     1      -1.909   0.411  -2.293  1.00  0.00     0.122 C 
BRANCH  19  20
ATOM     20  C   UNL     1      -1.923  -0.805  -3.250  1.00  0.00     0.096 C 
BRANCH  20  21
ATOM     21  N   UNL     1      -2.675  -0.563  -4.484  1.00  0.00    -0.329 NA
ATOM     22  H   UNL     1      -2.811  -1.438  -4.988  1.00  0.00     0.118 HD
ATOM     23  H   UNL     1      -3.608  -0.204  -4.268  1.00  0.00     0.118 HD
ENDBRANCH  20  21
ENDBRANCH  19  20
BRANCH  19  24
ATOM     24  C   UNL     1      -3.309   0.567  -1.669  1.00  0.00     0.233 C 
ATOM     25  O   UNL     1      -4.133   1.317  -2.190  1.00  0.00    -0.274 OA
ATOM     26  N   UNL     1      -3.545  -0.245  -0.570  1.00  0.00    -0.325 N 
ATOM     27  H   UNL     1      -2.747  -0.746  -0.199  1.00  0.00     0.169 HD
BRANCH  26  28
ATOM     28  C   UNL     1      -4.741  -0.379   0.166  1.00  0.00     0.041 A 
ATOM     29  C   UNL     1      -5.943   0.251  -0.167  1.00  0.00     0.035 A 
ATOM     30  C   UNL     1      -4.702  -1.209   1.293  1.00  0.00     0.027 A 
ATOM     31  C   UNL     1      -7.102   0.068   0.613  1.00  0.00    -0.013 A 
ATOM     32  C   UNL     1      -5.842  -1.404   2.077  1.00  0.00     0.012 A 
ATOM     33  C   UNL     1      -7.048  -0.768   1.744  1.00  0.00     0.000 A 
ATOM     34  C   UNL     1      -8.313   0.695   0.296  1.00  0.00     0.029 A 
ATOM     35  C   UNL     1      -8.221  -0.921   2.488  1.00  0.00     0.119 A 
ATOM     36  C   UNL     1      -9.415   0.471   1.106  1.00  0.00     0.111 A 
ATOM     37  N   UNL     1      -9.399  -0.324   2.195  1.00  0.00    -0.264 NA
ENDBRANCH  26  28
ENDBRANCH  19  24
ENDBRANCH   4  19
TORSDOF 9
