REMARK SMILES CN1CCC[C@H]1c1cccnc1
REMARK SMILES IDX 1 1 2 2 3 3 4 4 5 5 6 6 7 7 8 8 12 9 9 10 11 11 10 12
REMARK H PARENT
ROOT
ATOM      1  C   UNL     1      -1.509  -0.917   1.692  1.00  0.00     0.106 C 
ATOM      2  N   UNL     1      -1.296   0.050   0.623  1.00  0.00    -0.299 NA
ATOM      3  C   UNL     1      -2.538   0.381  -0.074  1.00  0.00     0.085 C 
ATOM      4  C   UNL     1      -2.027   1.112  -1.299  1.00  0.00     0.017 C 
ATOM      5  C   UNL     1      -0.750   0.369  -1.670  1.00  0.00     0.025 C 
ATOM      6  C   UNL     1      -0.371  -0.440  -0.418  1.00  0.00     0.088 C 
ENDROOT
BRANCH   6   7
ATOM      7  C   UNL     1       1.086  -0.276  -0.063  1.00  0.00    -0.012 A 
ATOM      8  C   UNL     1       1.580   0.854   0.598  1.00  0.00     0.008 A 
ATOM      9  C   UNL     1       2.013  -1.250  -0.425  1.00  0.00     0.116 A 
ATOM     10  C   UNL     1       2.939   0.958   0.876  1.00  0.00     0.020 A 
ATOM     11  N   UNL     1       3.340  -1.177  -0.171  1.00  0.00    -0.264 NA
ATOM     12  C   UNL     1       3.771  -0.074   0.476  1.00  0.00     0.111 A 
ENDBRANCH   6   7
TORSDOF 1
