REMARK SMILES O=C(O)c1cccnc1
REMARK SMILES IDX 2 1 1 2 3 3 4 5 9 6 5 7 8 8 6 9 7 10
REMARK H PARENT 3 4
ROOT
ATOM      1  C   UNL     1      -1.950   0.202   0.071  1.00  0.00     0.337 C 
ATOM      2  O   UNL     1      -2.833  -0.347  -0.561  1.00  0.00    -0.246 OA
ENDROOT
BRANCH   1   3
ATOM      3  O   UNL     1      -2.229   1.127   1.007  1.00  0.00    -0.478 OA
ATOM      4  H   UNL     1      -3.208   1.187   1.000  1.00  0.00     0.297 HD
ENDBRANCH   1   3
BRANCH   1   5
ATOM      5  C   UNL     1      -0.504  -0.039  -0.077  1.00  0.00     0.078 A 
ATOM      6  C   UNL     1      -0.078  -0.973  -1.012  1.00  0.00     0.126 A 
ATOM      7  C   UNL     1       0.466   0.623   0.678  1.00  0.00     0.019 A 
ATOM      8  N   UNL     1       1.225  -1.277  -1.235  1.00  0.00    -0.264 NA
ATOM      9  C   UNL     1       1.812   0.329   0.469  1.00  0.00     0.021 A 
ATOM     10  C   UNL     1       2.139  -0.619  -0.489  1.00  0.00     0.111 A 
ENDBRANCH   1   5
TORSDOF 2
