REMARK SMILES CC(C)(Oc1ccc(Cl)cc1)C(=O)OCc1cccnc1
REMARK SMILES IDX 12 1 13 2 2 3 1 4 3 5 4 6 5 7 6 8 11 9 7 10 10 11 8 12 9 13
REMARK SMILES IDX 14 14 15 15 16 16 21 17 17 18 20 19 18 20 19 21
REMARK H PARENT
ROOT
ATOM      1  C   UNL     1       0.696  -1.017  -0.628  1.00  0.00     0.350 C 
ATOM      2  O   UNL     1       0.859  -2.032   0.040  1.00  0.00    -0.247 OA
ENDROOT
BRANCH   1   3
ATOM      3  C   UNL     1      -0.641  -0.256  -0.791  1.00  0.00     0.200 C 
ATOM      4  C   UNL     1      -0.453   1.151  -0.205  1.00  0.00     0.069 C 
ATOM      5  C   UNL     1      -0.988  -0.205  -2.285  1.00  0.00     0.069 C 
BRANCH   3   6
ATOM      6  O   UNL     1      -1.604  -1.044  -0.048  1.00  0.00    -0.476 OA
BRANCH   6   7
ATOM      7  C   UNL     1      -2.869  -0.544   0.057  1.00  0.00     0.121 A 
ATOM      8  C   UNL     1      -3.219   0.204   1.180  1.00  0.00     0.048 A 
ATOM      9  C   UNL     1      -3.837  -0.901  -0.880  1.00  0.00     0.048 A 
ATOM     10  C   UNL     1      -4.529   0.664   1.329  1.00  0.00     0.024 A 
ATOM     11  C   UNL     1      -5.148  -0.442  -0.734  1.00  0.00     0.024 A 
ATOM     12  C   UNL     1      -5.487   0.345   0.366  1.00  0.00     0.041 A 
ATOM     13  Cl  UNL     1      -7.102   0.909   0.548  1.00  0.00    -0.084 Cl
ENDBRANCH   6   7
ENDBRANCH   3   6
ENDBRANCH   1   3
BRANCH   1  14
ATOM     14  O   UNL     1       1.695  -0.397  -1.325  1.00  0.00    -0.458 OA
BRANCH  14  15
ATOM     15  C   UNL     1       3.002  -0.967  -1.187  1.00  0.00     0.270 C 
BRANCH  15  16
ATOM     16  C   UNL     1       3.748  -0.242  -0.107  1.00  0.00     0.008 A 
ATOM     17  C   UNL     1       4.389   0.965  -0.365  1.00  0.00     0.118 A 
ATOM     18  C   UNL     1       3.788  -0.724   1.204  1.00  0.00     0.010 A 
ATOM     19  N   UNL     1       5.059   1.683   0.564  1.00  0.00    -0.264 NA
ATOM     20  C   UNL     1       4.470  -0.007   2.182  1.00  0.00     0.020 A 
ATOM     21  C   UNL     1       5.086   1.179   1.816  1.00  0.00     0.111 A 
ENDBRANCH  15  16
ENDBRANCH  14  15
ENDBRANCH   1  14
TORSDOF 6
