REMARK SMILES OCc1cccnc1
REMARK SMILES IDX 1 1 2 3 3 4 8 5 4 6 7 7 5 8 6 9
REMARK H PARENT 1 2
ROOT
ATOM      1  O   UNL     1      -2.325   0.738   0.984  1.00  0.00    -0.392 OA
ATOM      2  H   UNL     1      -3.293   0.771   0.906  1.00  0.00     0.211 HD
ENDROOT
BRANCH   1   3
ATOM      3  C   UNL     1      -1.846   0.039  -0.158  1.00  0.00     0.193 C 
BRANCH   3   4
ATOM      4  C   UNL     1      -0.353  -0.105  -0.127  1.00  0.00    -0.004 A 
ATOM      5  C   UNL     1       0.268  -1.085  -0.896  1.00  0.00     0.117 A 
ATOM      6  C   UNL     1       0.478   0.747   0.606  1.00  0.00     0.009 A 
ATOM      7  N   UNL     1       1.606  -1.273  -0.964  1.00  0.00    -0.264 NA
ATOM      8  C   UNL     1       1.860   0.578   0.560  1.00  0.00     0.020 A 
ATOM      9  C   UNL     1       2.370  -0.437  -0.230  1.00  0.00     0.111 A 
ENDBRANCH   3   4
ENDBRANCH   1   3
TORSDOF 2
