REMARK SMILES NC(=O)N(CCO)/N=C/c1ccc([N+](=O)[O-])o1
REMARK SMILES IDX 4 1 2 2 1 3 3 4 5 7 6 8 7 9 8 11 9 12 10 13 11 14 17 15
REMARK SMILES IDX 12 16 13 17 14 18 15 19 16 20
REMARK H PARENT 1 5 1 6 7 10
ROOT
ATOM      1  N   UNL     1       1.620   0.173  -0.528  1.00  0.00    -0.213 N 
ENDROOT
BRANCH   1   2
ATOM      2  C   UNL     1       1.876   1.406  -1.133  1.00  0.00     0.335 C 
ATOM      3  N   UNL     1       3.182   1.794  -1.160  1.00  0.00    -0.350 N 
ATOM      4  O   UNL     1       1.039   2.150  -1.637  1.00  0.00    -0.247 OA
ATOM      5  H   UNL     1       3.747   1.606  -0.345  1.00  0.00     0.161 HD
ATOM      6  H   UNL     1       3.298   2.731  -1.529  1.00  0.00     0.161 HD
ENDBRANCH   1   2
BRANCH   1   7
ATOM      7  C   UNL     1       2.673  -0.811  -0.258  1.00  0.00     0.178 C 
BRANCH   7   8
ATOM      8  C   UNL     1       3.081  -0.805   1.213  1.00  0.00     0.180 C 
BRANCH   8   9
ATOM      9  O   UNL     1       4.176  -1.687   1.438  1.00  0.00    -0.394 OA
ATOM     10  H   UNL     1       3.848  -2.596   1.323  1.00  0.00     0.210 HD
ENDBRANCH   8   9
ENDBRANCH   7   8
ENDBRANCH   1   7
BRANCH   1  11
ATOM     11  N   UNL     1       0.335  -0.333  -0.370  1.00  0.00    -0.173 NA
ATOM     12  C   UNL     1      -0.650   0.493  -0.204  1.00  0.00     0.181 C 
BRANCH  12  13
ATOM     13  C   UNL     1      -1.993  -0.010  -0.095  1.00  0.00     0.154 A 
ATOM     14  C   UNL     1      -2.520  -1.286  -0.207  1.00  0.00     0.060 A 
ATOM     15  O   UNL     1      -2.997   0.883   0.172  1.00  0.00    -0.400 OA
ATOM     16  C   UNL     1      -3.919  -1.176  -0.005  1.00  0.00     0.134 A 
ATOM     17  C   UNL     1      -4.148   0.160   0.221  1.00  0.00     0.433 A 
BRANCH  17  18
ATOM     18  N   UNL     1      -5.349   0.886   0.491  1.00  0.00     0.102 N 
ATOM     19  O   UNL     1      -6.394   0.223   0.518  1.00  0.00    -0.256 OA
ATOM     20  O   UNL     1      -5.258   2.106   0.680  1.00  0.00    -0.256 OA
ENDBRANCH  17  18
ENDBRANCH  12  13
ENDBRANCH   1  11
TORSDOF 7
