REMARK SMILES COC(=O)C1=C(C#N)NC(C)=C(C(=O)OC(C)C)C1c1cccc([N+](=O)[O-])c1
REMARK SMILES IDX 5 1 6 2 9 3 10 4 11 5 12 6 19 7 7 8 8 9 3 11 4 12 2 13 1 14
REMARK SMILES IDX 20 15 28 16 21 17 24 18 22 19 23 20 25 21 26 22 27 23 13 24
REMARK SMILES IDX 14 25 15 26 16 27 17 28 18 29
REMARK H PARENT 9 10
ROOT
ATOM      1  C   UNL     1      -1.448   1.704  -1.014  1.00  0.00     0.084 C 
ATOM      2  C   UNL     1      -0.753   2.852  -1.122  1.00  0.00     0.129 C 
ATOM      3  N   UNL     1       0.634   2.847  -1.127  1.00  0.00    -0.350 N 
ATOM      4  C   UNL     1       1.398   1.688  -1.145  1.00  0.00     0.024 C 
ATOM      5  C   UNL     1       2.880   1.878  -1.343  1.00  0.00     0.065 C 
ATOM      6  C   UNL     1       0.783   0.488  -1.034  1.00  0.00     0.068 C 
ATOM      7  C   UNL     1      -0.734   0.364  -0.908  1.00  0.00     0.099 C 
ATOM      8  C   UNL     1      -1.347   4.142  -1.293  1.00  0.00     0.118 C 
ATOM      9  N   UNL     1      -1.784   5.206  -1.447  1.00  0.00    -0.191 NA
ATOM     10  H   UNL     1       1.107   3.732  -1.308  1.00  0.00     0.167 HD
ENDROOT
BRANCH   1  11
ATOM     11  C   UNL     1      -2.921   1.640  -1.063  1.00  0.00     0.337 C 
ATOM     12  O   UNL     1      -3.529   0.808  -1.717  1.00  0.00    -0.246 OA
BRANCH  11  13
ATOM     13  O   UNL     1      -3.462   2.564  -0.235  1.00  0.00    -0.466 OA
ATOM     14  C   UNL     1      -4.890   2.550  -0.201  1.00  0.00     0.282 C 
ENDBRANCH  11  13
ENDBRANCH   1  11
BRANCH   7  15
ATOM     15  C   UNL     1      -1.119  -0.357   0.390  1.00  0.00    -0.029 A 
ATOM     16  C   UNL     1      -1.822  -1.572   0.334  1.00  0.00     0.090 A 
ATOM     17  C   UNL     1      -0.780   0.174   1.649  1.00  0.00     0.005 A 
ATOM     18  C   UNL     1      -2.174  -2.235   1.519  1.00  0.00     0.269 A 
ATOM     19  C   UNL     1      -1.134  -0.491   2.825  1.00  0.00     0.007 A 
ATOM     20  C   UNL     1      -1.831  -1.696   2.766  1.00  0.00     0.085 A 
BRANCH  18  21
ATOM     21  N   UNL     1      -2.907  -3.506   1.455  1.00  0.00     0.062 N 
ATOM     22  O   UNL     1      -3.183  -3.960   0.336  1.00  0.00    -0.258 OA
ATOM     23  O   UNL     1      -3.206  -4.052   2.527  1.00  0.00    -0.258 OA
ENDBRANCH  18  21
ENDBRANCH   7  15
BRANCH   6  24
ATOM     24  C   UNL     1       1.502  -0.803  -1.061  1.00  0.00     0.337 C 
ATOM     25  O   UNL     1       1.179  -1.733  -1.781  1.00  0.00    -0.246 OA
BRANCH  24  26
ATOM     26  O   UNL     1       2.481  -0.804  -0.124  1.00  0.00    -0.460 OA
BRANCH  26  27
ATOM     27  C   UNL     1       3.208  -2.038   0.027  1.00  0.00     0.170 C 
ATOM     28  C   UNL     1       3.755  -2.064   1.448  1.00  0.00     0.052 C 
ATOM     29  C   UNL     1       4.340  -2.088  -0.992  1.00  0.00     0.052 C 
ENDBRANCH  26  27
ENDBRANCH  24  26
ENDBRANCH   6  24
TORSDOF 7
