REMARK SMILES CN(C)Cc1ccc(CSCCNC(=C[N+](=O)[O-])NCc2ccc3c(c2)OCO3)o1
REMARK SMILES IDX 11 1 10 2 9 3 8 4 5 5 6 6 30 7 7 8 4 9 2 10 1 11 3 12 12 13
REMARK SMILES IDX 13 14 14 16 15 17 19 18 20 20 21 21 26 22 22 23 25 24 23 25
REMARK SMILES IDX 24 26 27 27 29 28 28 29 16 30 17 31 18 32
REMARK H PARENT 13 15 19 19
ROOT
ATOM      1  C   UNL     1      -1.503   0.951  -1.400  1.00  0.00     0.091 C 
ENDROOT
BRANCH   1   2
ATOM      2  S   UNL     1      -1.053   1.918   0.090  1.00  0.00    -0.152 SA
BRANCH   2   3
ATOM      3  C   UNL     1      -0.821   0.586   1.315  1.00  0.00     0.144 C 
BRANCH   3   4
ATOM      4  C   UNL     1      -1.991  -0.320   1.440  1.00  0.00     0.114 A 
ATOM      5  C   UNL     1      -4.116  -0.750   1.789  1.00  0.00     0.118 A 
ATOM      6  C   UNL     1      -3.510  -1.963   1.539  1.00  0.00     0.047 A 
ATOM      7  O   UNL     1      -3.191   0.251   1.745  1.00  0.00    -0.464 OA
ATOM      8  C   UNL     1      -2.139  -1.688   1.323  1.00  0.00     0.047 A 
BRANCH   5   9
ATOM      9  C   UNL     1      -5.523  -0.349   2.082  1.00  0.00     0.159 C 
BRANCH   9  10
ATOM     10  N   UNL     1      -6.404  -0.491   0.905  1.00  0.00    -0.302 NA
ATOM     11  C   UNL     1      -7.801  -0.330   1.311  1.00  0.00     0.105 C 
ATOM     12  C   UNL     1      -6.072   0.501  -0.122  1.00  0.00     0.105 C 
ENDBRANCH   9  10
ENDBRANCH   5   9
ENDBRANCH   3   4
ENDBRANCH   2   3
ENDBRANCH   1   2
BRANCH   1  13
ATOM     13  C   UNL     1      -0.481  -0.104  -1.843  1.00  0.00     0.125 C 
BRANCH  13  14
ATOM     14  N   UNL     1       0.855   0.462  -1.979  1.00  0.00    -0.366 N 
ATOM     15  H   UNL     1       0.861   1.450  -2.227  1.00  0.00     0.162 HD
BRANCH  14  16
ATOM     16  C   UNL     1       2.003  -0.163  -2.440  1.00  0.00     0.171 C 
ATOM     17  C   UNL     1       2.034  -1.504  -2.595  1.00  0.00     0.424 C 
BRANCH  16  18
ATOM     18  N   UNL     1       3.061   0.684  -2.735  1.00  0.00    -0.363 N 
ATOM     19  H   UNL     1       3.877   0.159  -3.071  1.00  0.00     0.162 HD
BRANCH  18  20
ATOM     20  C   UNL     1       3.501   1.782  -1.879  1.00  0.00     0.150 C 
BRANCH  20  21
ATOM     21  C   UNL     1       4.118   1.257  -0.604  1.00  0.00    -0.025 A 
ATOM     22  C   UNL     1       5.414   0.713  -0.613  1.00  0.00     0.056 A 
ATOM     23  C   UNL     1       3.377   1.275   0.602  1.00  0.00     0.009 A 
ATOM     24  C   UNL     1       5.921   0.224   0.573  1.00  0.00     0.166 A 
ATOM     25  C   UNL     1       3.919   0.773   1.789  1.00  0.00     0.051 A 
ATOM     26  C   UNL     1       5.195   0.256   1.741  1.00  0.00     0.165 A 
ATOM     27  O   UNL     1       7.151  -0.332   0.741  1.00  0.00    -0.454 OA
ATOM     28  O   UNL     1       5.878  -0.277   2.790  1.00  0.00    -0.454 OA
ATOM     29  C   UNL     1       7.114  -0.654   2.146  1.00  0.00     0.468 C 
ENDBRANCH  20  21
ENDBRANCH  18  20
ENDBRANCH  16  18
BRANCH  17  30
ATOM     30  N   UNL     1       3.187  -2.228  -3.071  1.00  0.00     0.058 N 
ATOM     31  O   UNL     1       4.221  -1.615  -3.374  1.00  0.00    -0.259 OA
ATOM     32  O   UNL     1       3.050  -3.457  -3.144  1.00  0.00    -0.259 OA
ENDBRANCH  17  30
ENDBRANCH  14  16
ENDBRANCH  13  14
ENDBRANCH   1  13
TORSDOF 12
