REMARK SMILES COC(=O)C1=C(C)NC(C)=C(C(=O)OCC(C)C)C1c1ccccc1[N+](=O)[O-]
REMARK SMILES IDX 12 1 13 2 11 3 5 4 6 5 19 6 8 7 9 8 7 9 10 11 3 12 4 13 2 14
REMARK SMILES IDX 1 15 20 16 25 17 21 18 24 19 22 20 23 21 26 22 27 23 28 24
REMARK SMILES IDX 14 25 15 26 16 27 17 28 18 29
REMARK H PARENT 8 10
ROOT
ATOM      1  C   UNL     1       1.065   0.270  -1.810  1.00  0.00     0.336 C 
ATOM      2  O   UNL     1       0.723   0.804  -2.854  1.00  0.00    -0.246 OA
ENDROOT
BRANCH   1   3
ATOM      3  C   UNL     1       0.261  -0.761  -1.123  1.00  0.00     0.069 C 
ATOM      4  C   UNL     1      -2.033  -1.535  -0.341  1.00  0.00     0.069 C 
ATOM      5  C   UNL     1      -1.467  -2.714   0.002  1.00  0.00     0.023 C 
ATOM      6  C   UNL     1      -1.198  -0.392  -0.901  1.00  0.00     0.105 C 
ATOM      7  N   UNL     1      -0.098  -2.883  -0.151  1.00  0.00    -0.362 N 
ATOM      8  C   UNL     1       0.750  -1.963  -0.748  1.00  0.00     0.023 C 
ATOM      9  C   UNL     1      -2.223  -3.915   0.510  1.00  0.00     0.065 C 
ATOM     10  H   UNL     1       0.299  -3.779   0.123  1.00  0.00     0.166 HD
ATOM     11  C   UNL     1       2.169  -2.419  -0.964  1.00  0.00     0.065 C 
BRANCH   4  12
ATOM     12  C   UNL     1      -3.484  -1.263  -0.265  1.00  0.00     0.336 C 
ATOM     13  O   UNL     1      -4.115  -0.746  -1.174  1.00  0.00    -0.246 OA
BRANCH  12  14
ATOM     14  O   UNL     1      -3.964  -1.582   0.961  1.00  0.00    -0.466 OA
ATOM     15  C   UNL     1      -5.344  -1.270   1.145  1.00  0.00     0.282 C 
ENDBRANCH  12  14
ENDBRANCH   4  12
BRANCH   6  16
ATOM     16  C   UNL     1      -1.338   0.895  -0.075  1.00  0.00     0.042 A 
ATOM     17  C   UNL     1      -0.945   1.051   1.269  1.00  0.00     0.273 A 
ATOM     18  C   UNL     1      -1.890   2.026  -0.710  1.00  0.00     0.012 A 
ATOM     19  C   UNL     1      -1.087   2.268   1.953  1.00  0.00     0.086 A 
ATOM     20  C   UNL     1      -2.036   3.242  -0.035  1.00  0.00     0.001 A 
ATOM     21  C   UNL     1      -1.635   3.365   1.294  1.00  0.00     0.007 A 
BRANCH  17  22
ATOM     22  N   UNL     1      -0.369  -0.038   2.034  1.00  0.00     0.063 N 
ATOM     23  O   UNL     1       0.865  -0.129   2.041  1.00  0.00    -0.258 OA
ATOM     24  O   UNL     1      -1.154  -0.744   2.680  1.00  0.00    -0.258 OA
ENDBRANCH  17  22
ENDBRANCH   6  16
ENDBRANCH   1   3
BRANCH   1  25
ATOM     25  O   UNL     1       2.152   0.579  -1.065  1.00  0.00    -0.462 OA
BRANCH  25  26
ATOM     26  C   UNL     1       2.959   1.635  -1.601  1.00  0.00     0.236 C 
BRANCH  26  27
ATOM     27  C   UNL     1       4.074   1.994  -0.609  1.00  0.00     0.021 C 
ATOM     28  C   UNL     1       3.495   2.532   0.701  1.00  0.00     0.011 C 
ATOM     29  C   UNL     1       4.978   0.794  -0.327  1.00  0.00     0.011 C 
ENDBRANCH  26  27
ENDBRANCH  25  26
ENDBRANCH   1  25
TORSDOF 8
