REMARK SMILES Cc1nc([N+](=O)[O-])cn1-c1ccc([N+](=O)[O-])cc1
REMARK SMILES IDX 10 1 11 2 12 3 13 4 17 5 18 6 9 7 2 8 3 9 4 10 8 11 1 12
REMARK SMILES IDX 5 13 6 14 7 15 14 16 15 17 16 18
REMARK H PARENT
ROOT
ATOM      1  C   UNL     1       0.369  -0.096   0.007  1.00  0.00     0.050 A 
ATOM      2  C   UNL     1       1.201  -0.981   0.717  1.00  0.00     0.034 A 
ATOM      3  C   UNL     1       2.592  -0.929   0.569  1.00  0.00     0.088 A 
ATOM      4  C   UNL     1       3.161   0.005  -0.303  1.00  0.00     0.269 A 
ATOM      5  C   UNL     1       2.345   0.879  -1.028  1.00  0.00     0.088 A 
ATOM      6  C   UNL     1       0.954   0.824  -0.874  1.00  0.00     0.034 A 
ENDROOT
BRANCH   1   7
ATOM      7  N   UNL     1      -1.049  -0.174   0.170  1.00  0.00    -0.276 N 
ATOM      8  C   UNL     1      -2.027   0.803  -0.035  1.00  0.00     0.225 A 
ATOM      9  N   UNL     1      -3.243   0.314   0.138  1.00  0.00    -0.022 NA
ATOM     10  C   UNL     1      -3.067  -0.987   0.527  1.00  0.00     0.382 A 
ATOM     11  C   UNL     1      -1.730  -1.303   0.585  1.00  0.00     0.202 A 
ATOM     12  C   UNL     1      -1.779   2.246  -0.304  1.00  0.00     0.120 C 
BRANCH  10  13
ATOM     13  N   UNL     1      -4.189  -1.850   0.822  1.00  0.00    -0.022 N 
ATOM     14  O   UNL     1      -3.916  -3.009   1.172  1.00  0.00    -0.358 OA
ATOM     15  O   UNL     1      -5.328  -1.381   0.706  1.00  0.00    -0.358 OA
ENDBRANCH  10  13
ENDBRANCH   1   7
BRANCH   4  16
ATOM     16  N   UNL     1       4.620   0.062  -0.463  1.00  0.00     0.062 N 
ATOM     17  O   UNL     1       5.302  -0.739   0.190  1.00  0.00    -0.258 OA
ATOM     18  O   UNL     1       5.079   0.910  -1.241  1.00  0.00    -0.258 OA
ENDBRANCH   4  16
TORSDOF 3
