REMARK SMILES CNC(=C[N+](=O)[O-])NCCSCc1csc(CN(C)C)n1
REMARK SMILES IDX 10 1 9 2 8 3 3 5 4 6 2 7 1 8 5 10 6 11 7 12 11 13 12 14
REMARK SMILES IDX 13 15 14 16 21 17 15 18 16 19 17 20 18 21 19 22 20 23
REMARK H PARENT 8 4 2 9
ROOT
ATOM      1  C   UNL     1      -0.889   0.757  -1.349  1.00  0.00     0.091 C 
ENDROOT
BRANCH   1   2
ATOM      2  C   UNL     1      -2.349   0.339  -1.547  1.00  0.00     0.125 C 
BRANCH   2   3
ATOM      3  N   UNL     1      -2.898  -0.185  -0.297  1.00  0.00    -0.366 N 
ATOM      4  H   UNL     1      -2.259  -0.818   0.181  1.00  0.00     0.162 HD
BRANCH   3   5
ATOM      5  C   UNL     1      -4.197  -0.630  -0.083  1.00  0.00     0.171 C 
ATOM      6  C   UNL     1      -5.180  -0.330  -0.960  1.00  0.00     0.424 C 
BRANCH   5   7
ATOM      7  N   UNL     1      -4.368  -1.408   1.052  1.00  0.00    -0.370 N 
ATOM      8  C   UNL     1      -3.741  -1.123   2.332  1.00  0.00     0.141 C 
ATOM      9  H   UNL     1      -5.352  -1.677   1.182  1.00  0.00     0.161 HD
ENDBRANCH   5   7
BRANCH   6  10
ATOM     10  N   UNL     1      -6.548  -0.757  -0.803  1.00  0.00     0.058 N 
ATOM     11  O   UNL     1      -6.891  -1.372   0.218  1.00  0.00    -0.259 OA
ATOM     12  O   UNL     1      -7.310  -0.457  -1.732  1.00  0.00    -0.259 OA
ENDBRANCH   6  10
ENDBRANCH   3   5
ENDBRANCH   2   3
ENDBRANCH   1   2
BRANCH   1  13
ATOM     13  S   UNL     1      -0.196   1.421  -2.902  1.00  0.00    -0.154 SA
BRANCH  13  14
ATOM     14  C   UNL     1       1.399   2.031  -2.264  1.00  0.00     0.126 C 
BRANCH  14  15
ATOM     15  C   UNL     1       2.287   0.920  -1.808  1.00  0.00     0.062 A 
ATOM     16  C   UNL     1       3.116   0.149  -2.600  1.00  0.00     0.091 A 
ATOM     17  N   UNL     1       2.314   0.595  -0.457  1.00  0.00    -0.244 NA
ATOM     18  S   UNL     1       3.942  -1.006  -1.646  1.00  0.00    -0.126 S 
ATOM     19  C   UNL     1       3.158  -0.396  -0.240  1.00  0.00     0.107 A 
BRANCH  19  20
ATOM     20  C   UNL     1       3.429  -1.014   1.114  1.00  0.00     0.151 C 
BRANCH  20  21
ATOM     21  N   UNL     1       4.276  -0.235   2.041  1.00  0.00    -0.303 NA
ATOM     22  C   UNL     1       5.634  -0.047   1.539  1.00  0.00     0.105 C 
ATOM     23  C   UNL     1       3.670   1.043   2.407  1.00  0.00     0.105 C 
ENDBRANCH  20  21
ENDBRANCH  19  20
ENDBRANCH  14  15
ENDBRANCH  13  14
ENDBRANCH   1  13
TORSDOF 10
