REMARK SMILES C#C[C@]1(OC(C)=O)CC[C@H]2[C@@H]3CCC4=CC(=O)CC[C@@H]4[C@H]3CC[C@@]21C
REMARK SMILES IDX 4 1 5 2 7 3 6 4 3 5 8 6 2 7 24 8 9 9 23 10 10 11 22 12 11 13
REMARK SMILES IDX 21 14 12 15 20 16 13 17 19 18 14 19 18 20 15 21 16 22 17 23
REMARK SMILES IDX 1 24 25 25
REMARK H PARENT
ROOT
ATOM      1  O   UNL     1       3.984   0.352  -0.102  1.00  0.00    -0.445 OA
ENDROOT
BRANCH   1   2
ATOM      2  C   UNL     1       5.252   0.076   0.300  1.00  0.00     0.304 C 
ATOM      3  O   UNL     1       5.586  -0.762   1.124  1.00  0.00    -0.253 OA
ATOM      4  C   UNL     1       6.212   0.979  -0.413  1.00  0.00     0.139 C 
ENDBRANCH   1   2
BRANCH   1   5
ATOM      5  C   UNL     1       2.900  -0.439   0.424  1.00  0.00     0.177 C 
ATOM      6  C   UNL     1       2.834  -0.447   1.981  1.00  0.00     0.063 C 
ATOM      7  C   UNL     1       2.994  -1.820  -0.111  1.00  0.00    -0.058 C 
ATOM      8  C   UNL     1       1.538   0.251   0.053  1.00  0.00     0.022 C 
ATOM      9  C   UNL     1       1.345  -0.353   2.377  1.00  0.00     0.010 C 
ATOM     10  C   UNL     1       0.999   0.027  -1.375  1.00  0.00     0.012 C 
ATOM     11  C   UNL     1       0.583  -0.437   1.058  1.00  0.00     0.003 C 
ATOM     12  C   UNL     1      -0.461   0.502  -1.522  1.00  0.00     0.005 C 
ATOM     13  C   UNL     1      -0.846   0.114   0.988  1.00  0.00    -0.003 C 
ATOM     14  C   UNL     1      -1.394  -0.112  -0.456  1.00  0.00    -0.000 C 
ATOM     15  C   UNL     1      -1.784  -0.451   2.076  1.00  0.00     0.008 C 
ATOM     16  C   UNL     1      -2.851   0.408  -0.506  1.00  0.00     0.019 C 
ATOM     17  C   UNL     1      -3.016  -1.174   1.533  1.00  0.00     0.032 C 
ATOM     18  C   UNL     1      -3.470   0.424  -1.910  1.00  0.00     0.016 C 
ATOM     19  C   UNL     1      -3.718  -0.417   0.432  1.00  0.00    -0.063 C 
ATOM     20  C   UNL     1      -4.915   0.910  -1.863  1.00  0.00     0.081 C 
ATOM     21  C   UNL     1      -5.047  -0.532   0.266  1.00  0.00     0.046 C 
ATOM     22  C   UNL     1      -5.740   0.140  -0.859  1.00  0.00     0.155 C 
ATOM     23  O   UNL     1      -6.966   0.084  -0.928  1.00  0.00    -0.295 OA
ATOM     24  C   UNL     1       3.088  -2.940  -0.538  1.00  0.00     0.008 C 
ATOM     25  C   UNL     1       1.669   1.792   0.273  1.00  0.00     0.017 C 
ENDBRANCH   1   5
TORSDOF 2
