REMARK SMILES CO[C@@H]1[C@@H](OC(N)=O)[C@@H](O)[C@H](Oc2ccc3c(O)c(NC(=O)c4ccc(O)c(CC=C(C)C)c4)c(=O)oc3c2C)OC1(C)C
REMARK SMILES IDX 13 1 14 2 15 3 16 4 17 5 19 6 35 7 36 8 37 9 38 10 39 11
REMARK SMILES IDX 40 12 12 13 11 14 3 15 4 16 42 17 9 18 41 19 43 20 44 21
REMARK SMILES IDX 2 22 1 23 5 24 6 25 7 26 8 27 10 30 18 32 20 34 21 35 22 36
REMARK SMILES IDX 23 38 34 39 24 40 28 41 25 42 26 43 29 44 30 45 31 46 32 47
REMARK SMILES IDX 33 48 27 49
REMARK H PARENT 7 28 7 29 10 31 18 33 20 37 27 50
ROOT
ATOM      1  C   UNL     1      -2.639   0.557   0.524  1.00  0.00     0.129 A 
ATOM      2  C   UNL     1      -2.570  -0.256  -0.610  1.00  0.00     0.048 A 
ATOM      3  C   UNL     1      -1.334  -0.639  -1.146  1.00  0.00     0.020 A 
ATOM      4  C   UNL     1      -0.142  -0.204  -0.562  1.00  0.00     0.062 A 
ATOM      5  C   UNL     1       1.185  -0.586  -1.043  1.00  0.00     0.157 C 
ATOM      6  C   UNL     1       2.292   0.015  -0.576  1.00  0.00     0.171 C 
ATOM      7  C   UNL     1       2.159   1.158   0.379  1.00  0.00     0.364 C 
ATOM      8  O   UNL     1       3.012   2.027   0.527  1.00  0.00    -0.244 OA
ATOM      9  O   UNL     1       0.953   1.219   1.071  1.00  0.00    -0.421 OA
ATOM     10  C   UNL     1      -0.223   0.645   0.541  1.00  0.00     0.148 A 
ATOM     11  C   UNL     1      -1.450   1.012   1.123  1.00  0.00     0.035 A 
ATOM     12  C   UNL     1      -1.494   1.940   2.306  1.00  0.00     0.052 C 
ENDROOT
BRANCH   1  13
ATOM     13  O   UNL     1      -3.800   0.990   1.103  1.00  0.00    -0.462 OA
BRANCH  13  14
ATOM     14  C   UNL     1      -5.058   0.489   0.622  1.00  0.00     0.340 C 
ATOM     15  C   UNL     1      -7.674   0.347  -0.302  1.00  0.00     0.193 C 
ATOM     16  C   UNL     1      -7.521   0.362   1.235  1.00  0.00     0.245 C 
ATOM     17  C   UNL     1      -6.705   1.326  -1.000  1.00  0.00     0.097 C 
ATOM     18  C   UNL     1      -6.117   0.812   1.694  1.00  0.00     0.227 C 
ATOM     19  O   UNL     1      -5.340   1.074  -0.652  1.00  0.00    -0.332 OA
ATOM     20  C   UNL     1      -7.032   2.804  -0.736  1.00  0.00     0.045 C 
ATOM     21  C   UNL     1      -6.776   1.112  -2.523  1.00  0.00     0.045 C 
BRANCH  15  22
ATOM     22  O   UNL     1      -9.026   0.664  -0.679  1.00  0.00    -0.374 OA
ATOM     23  C   UNL     1      -9.914  -0.445  -0.614  1.00  0.00     0.195 C 
ENDBRANCH  15  22
BRANCH  16  24
ATOM     24  O   UNL     1      -7.808  -0.994   1.679  1.00  0.00    -0.440 OA
BRANCH  24  25
ATOM     25  C   UNL     1      -8.266  -1.116   2.945  1.00  0.00     0.404 C 
ATOM     26  N   UNL     1      -8.551  -2.406   3.214  1.00  0.00    -0.335 N 
ATOM     27  O   UNL     1      -8.396  -0.207   3.750  1.00  0.00    -0.225 OA
ATOM     28  H   UNL     1      -8.795  -2.658   4.162  1.00  0.00     0.163 HD
ATOM     29  H   UNL     1      -8.294  -3.124   2.553  1.00  0.00     0.163 HD
ENDBRANCH  24  25
ENDBRANCH  16  24
BRANCH  18  30
ATOM     30  O   UNL     1      -5.764   0.244   2.965  1.00  0.00    -0.383 OA
ATOM     31  H   UNL     1      -6.462   0.499   3.603  1.00  0.00     0.211 HD
ENDBRANCH  18  30
ENDBRANCH  13  14
ENDBRANCH   1  13
BRANCH   5  32
ATOM     32  O   UNL     1       1.287  -1.647  -1.934  1.00  0.00    -0.505 OA
ATOM     33  H   UNL     1       0.551  -2.259  -1.754  1.00  0.00     0.293 HD
ENDBRANCH   5  32
BRANCH   6  34
ATOM     34  N   UNL     1       3.520  -0.411  -1.053  1.00  0.00    -0.313 N 
ATOM     35  C   UNL     1       4.729  -0.304  -0.395  1.00  0.00     0.255 C 
ATOM     36  O   UNL     1       4.857  -0.000   0.785  1.00  0.00    -0.269 OA
ATOM     37  H   UNL     1       3.465  -1.069  -1.823  1.00  0.00     0.170 HD
BRANCH  35  38
ATOM     38  C   UNL     1       5.926  -0.718  -1.188  1.00  0.00     0.040 A 
ATOM     39  C   UNL     1       7.078  -1.123  -0.499  1.00  0.00     0.021 A 
ATOM     40  C   UNL     1       5.938  -0.683  -2.588  1.00  0.00     0.017 A 
ATOM     41  C   UNL     1       8.231  -1.528  -1.194  1.00  0.00    -0.002 A 
ATOM     42  C   UNL     1       7.077  -1.085  -3.290  1.00  0.00     0.047 A 
ATOM     43  C   UNL     1       8.209  -1.507  -2.593  1.00  0.00     0.119 A 
BRANCH  41  44
ATOM     44  C   UNL     1       9.467  -1.924  -0.420  1.00  0.00     0.066 C 
BRANCH  44  45
ATOM     45  C   UNL     1      10.441  -0.785  -0.275  1.00  0.00    -0.023 C 
ATOM     46  C   UNL     1      10.646   0.008   0.795  1.00  0.00    -0.080 C 
ATOM     47  C   UNL     1       9.889  -0.072   2.092  1.00  0.00     0.039 C 
ATOM     48  C   UNL     1      11.684   1.099   0.752  1.00  0.00     0.039 C 
ENDBRANCH  44  45
ENDBRANCH  41  44
BRANCH  43  49
ATOM     49  O   UNL     1       9.325  -1.898  -3.278  1.00  0.00    -0.508 OA
ATOM     50  H   UNL     1       9.151  -1.836  -4.230  1.00  0.00     0.293 HD
ENDBRANCH  43  49
ENDBRANCH  35  38
ENDBRANCH   6  34
TORSDOF 12
