REMARK SMILES CCCCCCC(C)NN
REMARK SMILES IDX 5 1 4 2 3 3 2 4 1 5 6 6 7 7 8 8 9 9 10 11
REMARK H PARENT 9 10 10 12 10 13
ROOT
ATOM      1  C   UNL     1       0.094  -0.251  -0.333  1.00  0.00     0.002 C 
ENDROOT
BRANCH   1   2
ATOM      2  C   UNL     1       1.296  -1.195  -0.242  1.00  0.00     0.000 C 
BRANCH   2   3
ATOM      3  C   UNL     1       2.614  -0.548  -0.678  1.00  0.00    -0.000 C 
BRANCH   3   4
ATOM      4  C   UNL     1       3.075   0.578   0.248  1.00  0.00    -0.003 C 
ATOM      5  C   UNL     1       4.442   1.107  -0.160  1.00  0.00     0.004 C 
ENDBRANCH   3   4
ENDBRANCH   2   3
ENDBRANCH   1   2
BRANCH   1   6
ATOM      6  C   UNL     1      -1.210  -0.984   0.006  1.00  0.00     0.020 C 
BRANCH   6   7
ATOM      7  C   UNL     1      -2.479  -0.124  -0.188  1.00  0.00     0.066 C 
ATOM      8  C   UNL     1      -3.716  -1.019  -0.043  1.00  0.00     0.026 C 
BRANCH   7   9
ATOM      9  N   UNL     1      -2.520   0.973   0.798  1.00  0.00    -0.258 NA
ATOM     10  H   UNL     1      -1.601   1.420   0.868  1.00  0.00     0.141 HD
BRANCH   9  11
ATOM     11  N   UNL     1      -3.526   1.954   0.466  1.00  0.00    -0.271 NA
ATOM     12  H   UNL     1      -3.527   2.211  -0.524  1.00  0.00     0.137 HD
ATOM     13  H   UNL     1      -4.466   1.613   0.684  1.00  0.00     0.137 HD
ENDBRANCH   9  11
ENDBRANCH   7   9
ENDBRANCH   6   7
ENDBRANCH   1   6
TORSDOF 7
