REMARK SMILES O=C(O)CN(CC(=O)O)Cc1cc2c(cc1O)Oc1cc(O)c(CN(CC(=O)O)CC(=O)O)cc1C21OC(=O)c2ccccc21
REMARK SMILES IDX 11 1 12 2 13 3 14 4 18 5 19 6 20 7 21 8 23 9 34 10 35 11
REMARK SMILES IDX 36 12 37 13 38 14 39 15 40 16 45 17 44 18 43 19 42 20 41 21
REMARK SMILES IDX 15 22 16 23 10 24 5 25 4 26 2 27 1 28 3 29 6 31 7 32 8 33
REMARK SMILES IDX 9 34 17 36 24 38 25 39 26 40 27 41 28 42 29 43 30 45 31 46
REMARK SMILES IDX 32 47 33 48 22 50
REMARK H PARENT 3 30 9 35 17 37 29 44 33 49 22 51
ROOT
ATOM      1  C   UNL     1      -3.563   0.377   0.537  1.00  0.00     0.009 A 
ATOM      2  C   UNL     1      -2.367   0.690  -0.134  1.00  0.00     0.021 A 
ATOM      3  C   UNL     1      -1.199  -0.075   0.054  1.00  0.00     0.048 A 
ATOM      4  C   UNL     1      -1.240  -1.151   0.946  1.00  0.00     0.139 A 
ATOM      5  O   UNL     1      -0.155  -1.951   1.209  1.00  0.00    -0.456 OA
ATOM      6  C   UNL     1       1.089  -1.487   0.858  1.00  0.00     0.139 A 
ATOM      7  C   UNL     1       2.173  -2.136   1.448  1.00  0.00     0.094 A 
ATOM      8  C   UNL     1       3.468  -1.721   1.159  1.00  0.00     0.123 A 
ATOM      9  C   UNL     1       3.715  -0.664   0.275  1.00  0.00     0.009 A 
ATOM     10  C   UNL     1       2.610  -0.036  -0.329  1.00  0.00     0.021 A 
ATOM     11  C   UNL     1       1.289  -0.437  -0.042  1.00  0.00     0.048 A 
ATOM     12  C   UNL     1       0.081   0.184  -0.718  1.00  0.00     0.196 C 
ATOM     13  O   UNL     1       0.290   1.621  -0.811  1.00  0.00    -0.440 OA
ATOM     14  C   UNL     1       0.326   2.058  -2.103  1.00  0.00     0.340 C 
ATOM     15  O   UNL     1       0.498   3.201  -2.474  1.00  0.00    -0.246 OA
ATOM     16  C   UNL     1       0.120   0.896  -2.953  1.00  0.00     0.068 A 
ATOM     17  C   UNL     1      -0.032  -0.219  -2.156  1.00  0.00     0.020 A 
ATOM     18  C   UNL     1      -0.246  -1.464  -2.731  1.00  0.00     0.009 A 
ATOM     19  C   UNL     1      -0.298  -1.552  -4.126  1.00  0.00     0.001 A 
ATOM     20  C   UNL     1      -0.137  -0.407  -4.924  1.00  0.00     0.001 A 
ATOM     21  C   UNL     1       0.075   0.841  -4.335  1.00  0.00     0.016 A 
ATOM     22  C   UNL     1      -2.418  -1.476   1.618  1.00  0.00     0.094 A 
ATOM     23  C   UNL     1      -3.566  -0.719   1.408  1.00  0.00     0.123 A 
ENDROOT
BRANCH   1  24
ATOM     24  C   UNL     1      -4.784   1.251   0.337  1.00  0.00     0.125 C 
BRANCH  24  25
ATOM     25  N   UNL     1      -6.003   0.462   0.066  1.00  0.00    -0.278 NA
BRANCH  25  26
ATOM     26  C   UNL     1      -7.218   1.301   0.247  1.00  0.00     0.208 C 
BRANCH  26  27
ATOM     27  C   UNL     1      -7.505   1.597   1.715  1.00  0.00     0.317 C 
ATOM     28  O   UNL     1      -8.126   2.565   2.130  1.00  0.00    -0.251 OA
BRANCH  27  29
ATOM     29  O   UNL     1      -7.055   0.657   2.572  1.00  0.00    -0.480 OA
ATOM     30  H   UNL     1      -7.309   0.980   3.460  1.00  0.00     0.296 HD
ENDBRANCH  27  29
ENDBRANCH  26  27
ENDBRANCH  25  26
BRANCH  25  31
ATOM     31  C   UNL     1      -5.960  -0.098  -1.312  1.00  0.00     0.208 C 
BRANCH  31  32
ATOM     32  C   UNL     1      -7.018  -1.167  -1.564  1.00  0.00     0.317 C 
ATOM     33  O   UNL     1      -7.455  -1.467  -2.666  1.00  0.00    -0.251 OA
BRANCH  32  34
ATOM     34  O   UNL     1      -7.426  -1.836  -0.469  1.00  0.00    -0.480 OA
ATOM     35  H   UNL     1      -8.047  -2.512  -0.807  1.00  0.00     0.296 HD
ENDBRANCH  32  34
ENDBRANCH  31  32
ENDBRANCH  25  31
ENDBRANCH  24  25
ENDBRANCH   1  24
BRANCH  23  36
ATOM     36  O   UNL     1      -4.687  -1.110   2.085  1.00  0.00    -0.507 OA
ATOM     37  H   UNL     1      -5.464  -0.659   1.684  1.00  0.00     0.293 HD
ENDBRANCH  23  36
BRANCH   9  38
ATOM     38  C   UNL     1       5.116  -0.235  -0.120  1.00  0.00     0.125 C 
BRANCH  38  39
ATOM     39  N   UNL     1       6.057  -0.231   1.012  1.00  0.00    -0.278 NA
BRANCH  39  40
ATOM     40  C   UNL     1       5.834   0.917   1.926  1.00  0.00     0.208 C 
BRANCH  40  41
ATOM     41  C   UNL     1       6.443   0.658   3.301  1.00  0.00     0.317 C 
ATOM     42  O   UNL     1       6.890  -0.392   3.729  1.00  0.00    -0.251 OA
BRANCH  41  43
ATOM     43  O   UNL     1       6.430   1.761   4.080  1.00  0.00    -0.480 OA
ATOM     44  H   UNL     1       6.811   1.454   4.930  1.00  0.00     0.296 HD
ENDBRANCH  41  43
ENDBRANCH  40  41
ENDBRANCH  39  40
BRANCH  39  45
ATOM     45  C   UNL     1       7.473  -0.369   0.575  1.00  0.00     0.208 C 
BRANCH  45  46
ATOM     46  C   UNL     1       7.956   0.566  -0.527  1.00  0.00     0.317 C 
ATOM     47  O   UNL     1       8.807   0.286  -1.359  1.00  0.00    -0.251 OA
BRANCH  46  48
ATOM     48  O   UNL     1       7.427   1.804  -0.519  1.00  0.00    -0.480 OA
ATOM     49  H   UNL     1       7.884   2.261  -1.258  1.00  0.00     0.296 HD
ENDBRANCH  46  48
ENDBRANCH  45  46
ENDBRANCH  39  45
ENDBRANCH  38  39
ENDBRANCH   9  38
BRANCH   8  50
ATOM     50  O   UNL     1       4.479  -2.389   1.791  1.00  0.00    -0.507 OA
ATOM     51  H   UNL     1       5.284  -1.830   1.725  1.00  0.00     0.293 HD
ENDBRANCH   8  50
TORSDOF 18
