REMARK SMILES CO[C@H]1C[C@H](O[C@H]2[C@H](C)[C@@H](O[C@@H]3O[C@H](C)C[C@H](N(C)C)[C@H]3O)[C@@H](C)C[C@@]3(CO3)C(=O)[C@H](C)[C@@H](O)[C@@H](C)[C@@H](C)OC(=O)[C@@H]2C)O[C@@H](C)[C@@H]1O
REMARK SMILES IDX 10 1 8 2 9 3 7 4 6 5 5 6 3 7 4 8 47 9 45 10 44 11 46 12 2 13
REMARK SMILES IDX 1 14 48 15 42 17 43 18 40 19 41 20 39 21 37 22 38 23 35 24
REMARK SMILES IDX 36 25 11 27 12 28 13 29 21 30 14 31 17 32 16 33 15 34 22 35
REMARK SMILES IDX 18 37 19 38 20 39 23 40 24 41 25 42 26 43 27 44 28 45 29 46
REMARK SMILES IDX 30 47 31 48 32 49 33 50 34 52
REMARK H PARENT 48 16 22 36 34 53
REMARK Flexibility Score:   79.900
ROOT
ATOM      1  C   UNL     1       0.409   0.052  -0.581  1.00  0.00     0.130 C 
ENDROOT
BRANCH   1   2
ATOM      2  C   UNL     1      -0.971  -0.221   0.114  1.00  0.00     0.045 C 
ATOM      3  C   UNL     1      -0.917  -0.007   1.634  1.00  0.00     0.013 C 
BRANCH   2   4
ATOM      4  C   UNL     1      -2.085   0.627  -0.574  1.00  0.00     0.140 C 
BRANCH   4   5
ATOM      5  O   UNL     1      -2.264   1.865   0.143  1.00  0.00    -0.348 OA
BRANCH   5   6
ATOM      6  C   UNL     1      -2.170   3.030  -0.669  1.00  0.00     0.253 C 
ATOM      7  C   UNL     1      -2.550   4.638   1.257  1.00  0.00     0.154 C 
ATOM      8  C   UNL     1      -3.051   4.126  -0.096  1.00  0.00     0.097 C 
ATOM      9  C   UNL     1      -1.018   4.537   1.400  1.00  0.00     0.172 C 
ATOM     10  C   UNL     1      -0.301   4.412   0.042  1.00  0.00     0.149 C 
ATOM     11  O   UNL     1      -0.809   3.410  -0.842  1.00  0.00    -0.347 OA
ATOM     12  C   UNL     1      -0.229   5.732  -0.715  1.00  0.00     0.041 C 
BRANCH   7  13
ATOM     13  O   UNL     1      -2.925   6.025   1.411  1.00  0.00    -0.378 OA
ATOM     14  C   UNL     1      -4.301   6.191   1.740  1.00  0.00     0.195 C 
ENDBRANCH   7  13
BRANCH   9  15
ATOM     15  O   UNL     1      -0.713   3.411   2.233  1.00  0.00    -0.388 OA
ATOM     16  H   UNL     1       0.247   3.226   2.203  1.00  0.00     0.211 HD
ENDBRANCH   9  15
ENDBRANCH   5   6
ENDBRANCH   4   5
BRANCH   4  17
ATOM     17  C   UNL     1      -3.477  -0.040  -0.724  1.00  0.00     0.125 C 
ATOM     18  C   UNL     1      -3.646  -0.676  -2.110  1.00  0.00     0.023 C 
BRANCH  17  19
ATOM     19  C   UNL     1      -3.834  -1.041   0.364  1.00  0.00     0.311 C 
ATOM     20  O   UNL     1      -4.456  -0.764   1.380  1.00  0.00    -0.252 OA
BRANCH  19  21
ATOM     21  O   UNL     1      -3.368  -2.281   0.056  1.00  0.00    -0.462 OA
BRANCH  21  22
ATOM     22  C   UNL     1      -3.633  -3.361   0.978  1.00  0.00     0.178 C 
ATOM     23  C   UNL     1      -2.625  -3.310   2.129  1.00  0.00     0.053 C 
BRANCH  22  24
ATOM     24  C   UNL     1      -3.654  -4.694   0.171  1.00  0.00     0.056 CG0
ATOM     25  C   UNL     1      -3.467  -5.933   1.052  1.00  0.00     0.014 C 
ATOM     26  G   UNL     1      -2.825  -4.684  -1.152  1.00  0.00     0.000 G0
ENDBRANCH  22  24
ENDBRANCH  21  22
ENDBRANCH  19  21
ENDBRANCH  17  19
ENDBRANCH   4  17
ENDBRANCH   2   4
ENDBRANCH   1   2
BRANCH   1  27
ATOM     27  O   UNL     1       1.461  -0.197   0.355  1.00  0.00    -0.346 OA
BRANCH  27  28
ATOM     28  C   UNL     1       2.691   0.484   0.084  1.00  0.00     0.280 C 
ATOM     29  O   UNL     1       3.617  -0.473  -0.405  1.00  0.00    -0.347 OA
ATOM     30  C   UNL     1       3.172   1.172   1.392  1.00  0.00     0.188 C 
ATOM     31  C   UNL     1       4.892   0.087  -0.680  1.00  0.00     0.120 C 
ATOM     32  C   UNL     1       4.653   1.664   1.273  1.00  0.00     0.092 C 
ATOM     33  C   UNL     1       5.517   0.558   0.627  1.00  0.00     0.054 C 
ATOM     34  C   UNL     1       5.732  -1.000  -1.339  1.00  0.00     0.039 C 
BRANCH  30  35
ATOM     35  O   UNL     1       2.296   2.299   1.668  1.00  0.00    -0.386 OA
ATOM     36  H   UNL     1       2.396   2.915   0.924  1.00  0.00     0.211 HD
ENDBRANCH  30  35
BRANCH  32  37
ATOM     37  N   UNL     1       5.322   2.084   2.536  1.00  0.00    -0.304 NA
ATOM     38  C   UNL     1       6.442   3.001   2.267  1.00  0.00     0.105 C 
ATOM     39  C   UNL     1       4.441   2.705   3.526  1.00  0.00     0.105 C 
ENDBRANCH  32  37
ENDBRANCH  27  28
ENDBRANCH   1  27
BRANCH   1  40
ATOM     40  C   UNL     1       0.535  -0.857  -1.852  1.00  0.00     0.019 C 
ATOM     41  C   UNL     1       1.362  -0.165  -2.946  1.00  0.00     0.010 C 
BRANCH  40  42
ATOM     42  C   UNL     1       1.103  -2.253  -1.510  1.00  0.00     0.052 C 
BRANCH  42  43
ATOM     43  C   UNL     1       0.629  -3.356  -2.437  1.00  0.00     0.150 C 
ATOM     44  C   UNL     1       1.673  -4.334  -2.978  1.00  0.00     0.205 C 
ATOM     45  O   UNL     1       1.181  -3.251  -3.767  1.00  0.00    -0.361 OA
BRANCH  43  46
ATOM     46  C   UNL     1      -0.798  -3.835  -2.391  1.00  0.00     0.172 C 
ATOM     47  O   UNL     1      -1.507  -3.761  -3.394  1.00  0.00    -0.296 OA
BRANCH  46  48
ATOM     48  C   UNL     1      -1.302  -4.416  -1.060  1.00  0.00     0.085 C 
ATOM     49  C   UNL     1      -0.477  -5.652  -0.708  1.00  0.00     0.019 C 
BRANCH  48  50
ATOM     50  C   UNL     1      -2.825  -4.684  -1.152  1.00  0.00     0.131 CG0
ATOM     51  G   UNL     1      -3.654  -4.694   0.171  1.00  0.00     0.000 G0
BRANCH  50  52
ATOM     52  O   UNL     1      -3.056  -5.920  -1.845  1.00  0.00    -0.392 OA
ATOM     53  H   UNL     1      -2.847  -5.750  -2.786  1.00  0.00     0.210 HD
ENDBRANCH  50  52
ENDBRANCH  48  50
ENDBRANCH  46  48
ENDBRANCH  43  46
ENDBRANCH  42  43
ENDBRANCH  40  42
ENDBRANCH   1  40
TORSDOF 9
