REMARK SMILES C=CC(=O)Nc1cccc(Oc2nc(Nc3ccc(N4CCN(C)CC4)cc3)nc3ccsc23)c1
REMARK SMILES IDX 14 1 29 2 30 3 34 4 33 5 32 6 31 7 12 8 13 9 15 10 16 12
REMARK SMILES IDX 19 13 18 14 27 15 17 16 28 17 20 18 23 19 22 20 25 21 21 22
REMARK SMILES IDX 26 23 24 24 11 25 10 26 9 27 35 28 8 29 6 30 7 31 5 32 3 33
REMARK SMILES IDX 4 34 2 36 1 37
REMARK H PARENT 15 11 5 35
ROOT
ATOM      1  C   UNL     1       0.737   0.375   0.314  1.00  0.00     0.231 A 
ATOM      2  N   UNL     1       0.513  -0.916   0.554  1.00  0.00    -0.212 NA
ATOM      3  C   UNL     1       1.456  -1.563   1.276  1.00  0.00     0.091 A 
ATOM      4  C   UNL     1       2.611  -0.941   1.741  1.00  0.00     0.116 A 
ATOM      5  S   UNL     1       3.551  -2.037   2.679  1.00  0.00    -0.136 S 
ATOM      6  C   UNL     1       2.474  -3.331   2.402  1.00  0.00     0.068 A 
ATOM      7  C   UNL     1       1.389  -2.939   1.652  1.00  0.00     0.041 A 
ATOM      8  C   UNL     1       2.794   0.398   1.405  1.00  0.00     0.242 A 
ATOM      9  N   UNL     1       1.834   1.037   0.700  1.00  0.00    -0.175 NA
ENDROOT
BRANCH   1  10
ATOM     10  N   UNL     1      -0.185   1.161  -0.379  1.00  0.00    -0.324 N 
ATOM     11  H   UNL     1       0.172   2.106  -0.378  1.00  0.00     0.170 HD
BRANCH  10  12
ATOM     12  C   UNL     1      -1.575   1.062  -0.538  1.00  0.00     0.041 A 
ATOM     13  C   UNL     1      -4.419   1.000  -0.928  1.00  0.00     0.037 A 
ATOM     14  C   UNL     1      -3.628   2.047  -1.424  1.00  0.00     0.028 A 
ATOM     15  C   UNL     1      -3.738  -0.049  -0.302  1.00  0.00     0.028 A 
ATOM     16  C   UNL     1      -2.239   2.078  -1.236  1.00  0.00     0.028 A 
ATOM     17  C   UNL     1      -2.343  -0.022  -0.116  1.00  0.00     0.028 A 
BRANCH  13  18
ATOM     18  N   UNL     1      -5.813   1.034  -1.108  1.00  0.00    -0.369 N 
ATOM     19  N   UNL     1      -8.757   1.129  -0.693  1.00  0.00    -0.303 NA
ATOM     20  C   UNL     1      -8.056  -0.046  -1.259  1.00  0.00     0.105 C 
ATOM     21  C   UNL     1      -7.944   2.336  -0.966  1.00  0.00     0.105 C 
ATOM     22  C   UNL     1      -6.576  -0.204  -0.833  1.00  0.00     0.132 C 
ATOM     23  C   UNL     1      -6.456   2.247  -0.543  1.00  0.00     0.132 C 
ATOM     24  C   UNL     1      -9.020   0.970   0.735  1.00  0.00     0.105 C 
ENDBRANCH  13  18
ENDBRANCH  10  12
ENDBRANCH   1  10
BRANCH   8  25
ATOM     25  O   UNL     1       3.838   1.214   1.823  1.00  0.00    -0.437 OA
BRANCH  25  26
ATOM     26  C   UNL     1       5.116   0.726   1.706  1.00  0.00     0.131 A 
ATOM     27  C   UNL     1       5.948   0.889   2.812  1.00  0.00     0.047 A 
ATOM     28  C   UNL     1       5.606   0.150   0.528  1.00  0.00     0.073 A 
ATOM     29  C   UNL     1       7.259   0.426   2.760  1.00  0.00     0.006 A 
ATOM     30  C   UNL     1       6.925  -0.326   0.472  1.00  0.00     0.045 A 
ATOM     31  C   UNL     1       7.742  -0.184   1.598  1.00  0.00     0.026 A 
BRANCH  30  32
ATOM     32  N   UNL     1       7.350  -0.924  -0.736  1.00  0.00    -0.322 N 
ATOM     33  C   UNL     1       8.567  -1.524  -0.981  1.00  0.00     0.247 C 
ATOM     34  O   UNL     1       9.491  -1.689  -0.194  1.00  0.00    -0.270 OA
ATOM     35  H   UNL     1       6.666  -0.944  -1.481  1.00  0.00     0.170 HD
BRANCH  33  36
ATOM     36  C   UNL     1       8.660  -2.030  -2.379  1.00  0.00     0.064 C 
ATOM     37  C   UNL     1       9.407  -3.110  -2.645  1.00  0.00     0.014 C 
ENDBRANCH  33  36
ENDBRANCH  30  32
ENDBRANCH  25  26
ENDBRANCH   8  25
TORSDOF 7
