REMARK SMILES O=C(O)c1cc(N=Nc2ccc(O)c(C(=O)O)c2)ccc1O
REMARK SMILES IDX 7 1 8 2 6 3 4 4 5 5 21 6 20 7 19 8 2 9 1 10 3 11 22 13 9 15
REMARK SMILES IDX 18 16 10 17 14 18 11 19 12 20 15 21 16 22 17 23 13 25
REMARK H PARENT 3 12 22 14 17 24 13 26
ROOT
ATOM      1  N   UNL     1      -0.179  -0.524  -0.419  1.00  0.00    -0.151 NA
ATOM      2  N   UNL     1       0.277   0.547   0.040  1.00  0.00    -0.151 NA
ENDROOT
BRANCH   1   3
ATOM      3  C   UNL     1      -1.571  -0.577  -0.235  1.00  0.00     0.087 A 
ATOM      4  C   UNL     1      -3.823   0.169  -0.796  1.00  0.00     0.103 A 
ATOM      5  C   UNL     1      -2.433   0.249  -0.968  1.00  0.00     0.049 A 
ATOM      6  C   UNL     1      -4.345  -0.758   0.115  1.00  0.00     0.130 A 
ATOM      7  C   UNL     1      -3.495  -1.592   0.839  1.00  0.00     0.049 A 
ATOM      8  C   UNL     1      -2.114  -1.504   0.660  1.00  0.00     0.034 A 
BRANCH   4   9
ATOM      9  C   UNL     1      -4.656   1.088  -1.609  1.00  0.00     0.339 C 
ATOM     10  O   UNL     1      -4.248   1.902  -2.415  1.00  0.00    -0.246 OA
BRANCH   9  11
ATOM     11  O   UNL     1      -5.977   0.947  -1.376  1.00  0.00    -0.478 OA
ATOM     12  H   UNL     1      -6.377   1.614  -1.980  1.00  0.00     0.297 HD
ENDBRANCH   9  11
ENDBRANCH   4   9
BRANCH   6  13
ATOM     13  O   UNL     1      -5.682  -0.917   0.357  1.00  0.00    -0.507 OA
ATOM     14  H   UNL     1      -6.164  -0.277  -0.208  1.00  0.00     0.293 HD
ENDBRANCH   6  13
ENDBRANCH   1   3
BRANCH   2  15
ATOM     15  C   UNL     1       1.669   0.602  -0.149  1.00  0.00     0.087 A 
ATOM     16  C   UNL     1       2.535  -0.189   0.616  1.00  0.00     0.049 A 
ATOM     17  C   UNL     1       2.203   1.495  -1.084  1.00  0.00     0.034 A 
ATOM     18  C   UNL     1       3.923  -0.105   0.435  1.00  0.00     0.103 A 
ATOM     19  C   UNL     1       3.584   1.585  -1.272  1.00  0.00     0.049 A 
ATOM     20  C   UNL     1       4.439   0.787  -0.516  1.00  0.00     0.130 A 
BRANCH  18  21
ATOM     21  C   UNL     1       4.849  -0.939   1.230  1.00  0.00     0.339 C 
ATOM     22  O   UNL     1       6.063  -0.913   1.117  1.00  0.00    -0.246 OA
BRANCH  21  23
ATOM     23  O   UNL     1       4.235  -1.747   2.108  1.00  0.00    -0.478 OA
ATOM     24  H   UNL     1       4.962  -2.230   2.555  1.00  0.00     0.297 HD
ENDBRANCH  21  23
ENDBRANCH  18  21
BRANCH  20  25
ATOM     25  O   UNL     1       5.777   0.939  -0.763  1.00  0.00    -0.507 OA
ATOM     26  H   UNL     1       6.281   0.332  -0.178  1.00  0.00     0.293 HD
ENDBRANCH  20  25
ENDBRANCH   2  15
TORSDOF 8
