REMARK SMILES NC(=O)c1nc[nH]c1N
REMARK SMILES IDX 4 1 8 2 7 3 6 4 5 5 2 7 1 8 3 9 9 12
REMARK H PARENT 7 6 1 10 1 11 9 13 9 14
ROOT
ATOM      1  C   UNL     1       0.275  -0.205   0.027  1.00  0.00     0.169 A 
ATOM      2  C   UNL     1      -0.857   0.593   0.008  1.00  0.00     0.133 A 
ATOM      3  N   UNL     1      -1.811  -0.153  -0.627  1.00  0.00    -0.331 N 
ATOM      4  C   UNL     1      -1.251  -1.351  -0.967  1.00  0.00     0.199 A 
ATOM      5  N   UNL     1       0.006  -1.423  -0.596  1.00  0.00    -0.229 NA
ATOM      6  H   UNL     1      -2.767   0.125  -0.790  1.00  0.00     0.169 HD
ENDROOT
BRANCH   1   7
ATOM      7  C   UNL     1       1.583   0.126   0.585  1.00  0.00     0.271 C 
ATOM      8  N   UNL     1       2.491  -0.889   0.478  1.00  0.00    -0.364 N 
ATOM      9  O   UNL     1       1.875   1.202   1.099  1.00  0.00    -0.268 OA
ATOM     10  H   UNL     1       3.430  -0.758   0.820  1.00  0.00     0.160 HD
ATOM     11  H   UNL     1       2.209  -1.752   0.029  1.00  0.00     0.160 HD
ENDBRANCH   1   7
BRANCH   2  12
ATOM     12  N   UNL     1      -1.132   1.826   0.476  1.00  0.00    -0.383 N 
ATOM     13  H   UNL     1      -0.349   2.388   0.821  1.00  0.00     0.158 HD
ATOM     14  H   UNL     1      -1.892   2.395   0.115  1.00  0.00     0.158 HD
ENDBRANCH   2  12
TORSDOF 2
