REMARK SMILES CC(C)NCC(O)c1cc(O)cc(O)c1
REMARK SMILES IDX 5 1 4 2 2 4 1 5 3 6 6 7 7 8 8 10 9 11 15 12 10 13 13 14
REMARK SMILES IDX 12 15 11 16 14 18
REMARK H PARENT 4 3 7 9 11 17 14 19
ROOT
ATOM      1  C   UNL     1      -0.958  -0.677   0.987  1.00  0.00     0.117 C 
ENDROOT
BRANCH   1   2
ATOM      2  N   UNL     1      -1.399  -0.478  -0.402  1.00  0.00    -0.312 NA
ATOM      3  H   UNL     1      -1.141  -1.305  -0.944  1.00  0.00     0.123 HD
BRANCH   2   4
ATOM      4  C   UNL     1      -2.831  -0.198  -0.535  1.00  0.00     0.047 C 
ATOM      5  C   UNL     1      -3.210   1.156   0.066  1.00  0.00     0.024 C 
ATOM      6  C   UNL     1      -3.189  -0.220  -2.023  1.00  0.00     0.024 C 
ENDBRANCH   2   4
ENDBRANCH   1   2
BRANCH   1   7
ATOM      7  C   UNL     1       0.445  -1.338   1.077  1.00  0.00     0.158 C 
BRANCH   7   8
ATOM      8  O   UNL     1       0.461  -2.545   0.301  1.00  0.00    -0.387 OA
ATOM      9  H   UNL     1      -0.221  -3.127   0.674  1.00  0.00     0.211 HD
ENDBRANCH   7   8
BRANCH   7  10
ATOM     10  C   UNL     1       1.574  -0.423   0.650  1.00  0.00    -0.011 A 
ATOM     11  C   UNL     1       2.197   0.409   1.597  1.00  0.00     0.052 A 
ATOM     12  C   UNL     1       2.004  -0.364  -0.686  1.00  0.00     0.052 A 
ATOM     13  C   UNL     1       3.228   1.263   1.207  1.00  0.00     0.119 A 
ATOM     14  C   UNL     1       3.035   0.499  -1.053  1.00  0.00     0.119 A 
ATOM     15  C   UNL     1       3.653   1.313  -0.114  1.00  0.00     0.092 A 
BRANCH  13  16
ATOM     16  O   UNL     1       3.852   2.077   2.107  1.00  0.00    -0.508 OA
ATOM     17  H   UNL     1       3.458   1.937   2.982  1.00  0.00     0.293 HD
ENDBRANCH  13  16
BRANCH  14  18
ATOM     18  O   UNL     1       3.468   0.571  -2.345  1.00  0.00    -0.508 OA
ATOM     19  H   UNL     1       2.930  -0.038  -2.878  1.00  0.00     0.293 HD
ENDBRANCH  14  18
ENDBRANCH   7  10
ENDBRANCH   1   7
TORSDOF 7
