REMARK SMILES CCOC(=O)C1=C[C@@H](OC(CC)CC)[C@H](NC(C)=O)[C@@H](N)C1
REMARK SMILES IDX 6 1 7 2 8 3 15 4 20 5 22 6 4 7 5 8 3 9 2 10 1 11 9 12 10 13
REMARK SMILES IDX 11 14 12 15 13 16 14 17 21 18 16 21 17 22 19 23 18 25
REMARK H PARENT 21 19 21 20 16 24
ROOT
ATOM      1  C   UNL     1       2.027  -0.185  -0.831  1.00  0.00     0.037 C 
ATOM      2  C   UNL     1       0.796  -0.702  -0.655  1.00  0.00     0.018 C 
ATOM      3  C   UNL     1      -0.416   0.119  -0.304  1.00  0.00     0.166 C 
ATOM      4  C   UNL     1      -0.050   1.566   0.132  1.00  0.00     0.132 C 
ATOM      5  C   UNL     1       1.029   2.144  -0.831  1.00  0.00     0.081 C 
ATOM      6  C   UNL     1       2.310   1.289  -0.742  1.00  0.00     0.064 C 
ENDROOT
BRANCH   1   7
ATOM      7  C   UNL     1       3.135  -1.124  -1.159  1.00  0.00     0.333 C 
ATOM      8  O   UNL     1       2.970  -2.272  -1.541  1.00  0.00    -0.247 OA
BRANCH   7   9
ATOM      9  O   UNL     1       4.328  -0.510  -0.966  1.00  0.00    -0.463 OA
BRANCH   9  10
ATOM     10  C   UNL     1       5.490  -1.306  -1.239  1.00  0.00     0.230 C 
ATOM     11  C   UNL     1       5.873  -2.112  -0.012  1.00  0.00     0.049 C 
ENDBRANCH   9  10
ENDBRANCH   7   9
ENDBRANCH   1   7
BRANCH   3  12
ATOM     12  O   UNL     1      -1.079  -0.524   0.793  1.00  0.00    -0.369 OA
BRANCH  12  13
ATOM     13  C   UNL     1      -2.088  -1.474   0.410  1.00  0.00     0.118 C 
BRANCH  13  14
ATOM     14  C   UNL     1      -2.170  -2.470   1.578  1.00  0.00     0.028 C 
ATOM     15  C   UNL     1      -3.132  -3.624   1.367  1.00  0.00     0.006 C 
ENDBRANCH  13  14
BRANCH  13  16
ATOM     16  C   UNL     1      -3.409  -0.725   0.157  1.00  0.00     0.028 C 
ATOM     17  C   UNL     1      -4.247  -1.357  -0.945  1.00  0.00     0.006 C 
ENDBRANCH  13  16
ENDBRANCH  12  13
ENDBRANCH   3  12
BRANCH   5  18
ATOM     18  N   UNL     1       1.324   3.570  -0.606  1.00  0.00    -0.326 NA
ATOM     19  H   UNL     1       1.161   3.794   0.384  1.00  0.00     0.119 HD
ATOM     20  H   UNL     1       2.304   3.778  -0.786  1.00  0.00     0.119 HD
ENDBRANCH   5  18
BRANCH   4  21
ATOM     21  N   UNL     1      -1.243   2.427   0.197  1.00  0.00    -0.349 N 
ATOM     22  C   UNL     1      -1.310   3.489   1.070  1.00  0.00     0.217 C 
ATOM     23  O   UNL     1      -0.433   3.759   1.885  1.00  0.00    -0.275 OA
ATOM     24  H   UNL     1      -1.848   2.449  -0.612  1.00  0.00     0.163 HD
ATOM     25  C   UNL     1      -2.554   4.324   0.926  1.00  0.00     0.114 C 
ENDBRANCH   4  21
TORSDOF 9
