REMARK SMILES N#Cc1ccc([C@H]2CCc3cncn32)c(F)c1
REMARK SMILES IDX 16 1 15 2 6 3 5 4 4 5 3 6 17 7 2 8 1 9 7 10 8 11 14 12 9 13
REMARK SMILES IDX 13 14 10 15 12 16 11 17
REMARK H PARENT
ROOT
ATOM      1  F   UNL     1       0.251  -1.973  -0.384  1.00  0.00    -0.207 F 
ATOM      2  C   UNL     1       1.156  -1.024  -0.107  1.00  0.00     0.129 A 
ATOM      3  C   UNL     1       0.778   0.324  -0.100  1.00  0.00     0.011 A 
ATOM      4  C   UNL     1       1.761   1.283   0.196  1.00  0.00     0.010 A 
ATOM      5  C   UNL     1       3.076   0.893   0.472  1.00  0.00     0.020 A 
ATOM      6  C   UNL     1       3.429  -0.460   0.459  1.00  0.00     0.055 A 
ATOM      7  C   UNL     1       2.462  -1.422   0.168  1.00  0.00     0.059 A 
ATOM      8  C   UNL     1       4.777  -0.856   0.741  1.00  0.00     0.099 C 
ATOM      9  N   UNL     1       5.871  -1.172   0.967  1.00  0.00    -0.192 NA
ENDROOT
BRANCH   3  10
ATOM     10  C   UNL     1      -0.635   0.761  -0.388  1.00  0.00     0.122 C 
ATOM     11  C   UNL     1      -1.218   0.310  -1.757  1.00  0.00     0.037 C 
ATOM     12  N   UNL     1      -1.611   0.206   0.544  1.00  0.00    -0.327 N 
ATOM     13  C   UNL     1      -2.725   0.018  -1.511  1.00  0.00     0.058 C 
ATOM     14  C   UNL     1      -1.719   0.045   1.873  1.00  0.00     0.200 A 
ATOM     15  C   UNL     1      -2.769  -0.185  -0.056  1.00  0.00     0.038 A 
ATOM     16  N   UNL     1      -2.901  -0.469   2.167  1.00  0.00    -0.245 NA
ATOM     17  C   UNL     1      -3.567  -0.623   0.963  1.00  0.00     0.134 A 
ENDBRANCH   3  10
TORSDOF 1
