REMARK SMILES CCCCCCCCOc1ccccc1C(=O)Nc1ccc(C(=O)OCC[N+](C)(CC)CC)cc1
REMARK SMILES IDX 10 1 15 2 14 3 13 4 12 5 11 6 9 7 8 8 7 9 6 10 5 11 4 12
REMARK SMILES IDX 3 13 2 14 1 15 16 16 17 17 18 18 19 20 20 21 35 22 21 23
REMARK SMILES IDX 34 24 22 25 23 26 24 27 25 28 26 29 27 30 28 31 29 32 30 33
REMARK SMILES IDX 31 34 32 35 33 36
REMARK H PARENT 18 19
ROOT
ATOM      1  C   UNL     1       3.823  -2.382   2.500  1.00  0.00     0.132 A 
ATOM      2  C   UNL     1       2.958  -1.959   3.521  1.00  0.00     0.082 A 
ATOM      3  C   UNL     1       3.311  -2.226   4.854  1.00  0.00     0.018 A 
ATOM      4  C   UNL     1       4.479  -2.930   5.158  1.00  0.00     0.001 A 
ATOM      5  C   UNL     1       5.310  -3.376   4.132  1.00  0.00     0.004 A 
ATOM      6  C   UNL     1       4.980  -3.111   2.804  1.00  0.00     0.047 A 
ENDROOT
BRANCH   1   7
ATOM      7  O   UNL     1       3.526  -2.141   1.182  1.00  0.00    -0.493 OA
BRANCH   7   8
ATOM      8  C   UNL     1       4.439  -1.195   0.596  1.00  0.00     0.229 C 
BRANCH   8   9
ATOM      9  C   UNL     1       4.918  -1.761  -0.739  1.00  0.00     0.042 C 
BRANCH   9  10
ATOM     10  C   UNL     1       5.917  -0.856  -1.461  1.00  0.00     0.003 C 
BRANCH  10  11
ATOM     11  C   UNL     1       7.288  -0.823  -0.776  1.00  0.00     0.000 C 
BRANCH  11  12
ATOM     12  C   UNL     1       8.344  -0.051  -1.574  1.00  0.00    -0.000 C 
BRANCH  12  13
ATOM     13  C   UNL     1       8.044   1.431  -1.811  1.00  0.00    -0.000 C 
BRANCH  13  14
ATOM     14  C   UNL     1       7.895   2.238  -0.520  1.00  0.00    -0.003 C 
ATOM     15  C   UNL     1       7.732   3.723  -0.813  1.00  0.00     0.004 C 
ENDBRANCH  13  14
ENDBRANCH  12  13
ENDBRANCH  11  12
ENDBRANCH  10  11
ENDBRANCH   9  10
ENDBRANCH   8   9
ENDBRANCH   7   8
ENDBRANCH   1   7
BRANCH   2  16
ATOM     16  C   UNL     1       1.680  -1.216   3.282  1.00  0.00     0.259 C 
ATOM     17  O   UNL     1       1.205  -0.561   4.205  1.00  0.00    -0.269 OA
ATOM     18  N   UNL     1       1.134  -1.346   2.017  1.00  0.00    -0.322 N 
ATOM     19  H   UNL     1       1.665  -1.922   1.370  1.00  0.00     0.170 HD
BRANCH  18  20
ATOM     20  C   UNL     1      -0.067  -0.798   1.530  1.00  0.00     0.041 A 
ATOM     21  C   UNL     1      -0.905   0.037   2.273  1.00  0.00     0.027 A 
ATOM     22  C   UNL     1      -0.430  -1.125   0.217  1.00  0.00     0.027 A 
ATOM     23  C   UNL     1      -2.088   0.536   1.716  1.00  0.00     0.018 A 
ATOM     24  C   UNL     1      -1.616  -0.635  -0.343  1.00  0.00     0.018 A 
ATOM     25  C   UNL     1      -2.453   0.197   0.409  1.00  0.00     0.060 A 
BRANCH  25  26
ATOM     26  C   UNL     1      -3.725   0.740  -0.132  1.00  0.00     0.338 C 
ATOM     27  O   UNL     1      -4.389   1.618   0.397  1.00  0.00    -0.246 OA
BRANCH  26  28
ATOM     28  O   UNL     1      -4.080   0.101  -1.279  1.00  0.00    -0.456 OA
BRANCH  28  29
ATOM     29  C   UNL     1      -5.269   0.609  -1.910  1.00  0.00     0.294 C 
BRANCH  29  30
ATOM     30  C   UNL     1      -6.536   0.173  -1.149  1.00  0.00     0.305 C 
BRANCH  30  31
ATOM     31  N   UNL     1      -7.883   0.665  -1.765  1.00  0.00    -0.324 N 
ATOM     32  C   UNL     1      -7.988   0.159  -3.211  1.00  0.00     0.334 C 
BRANCH  31  33
ATOM     33  C   UNL     1      -7.930   2.211  -1.731  1.00  0.00     0.260 C 
ATOM     34  C   UNL     1      -9.261   2.792  -2.185  1.00  0.00     0.071 C 
ENDBRANCH  31  33
BRANCH  31  35
ATOM     35  C   UNL     1      -9.051   0.016  -0.973  1.00  0.00     0.260 C 
ATOM     36  C   UNL     1      -9.142   0.463   0.478  1.00  0.00     0.071 C 
ENDBRANCH  31  35
ENDBRANCH  30  31
ENDBRANCH  29  30
ENDBRANCH  28  29
ENDBRANCH  26  28
ENDBRANCH  25  26
ENDBRANCH  18  20
ENDBRANCH   2  16
TORSDOF 17
