REMARK SMILES CC1CN2CC(=O)Nc3ccc(Cl)cc3C2(c2ccccc2)O1
REMARK SMILES IDX 9 1 10 2 11 3 12 4 13 5 14 6 15 7 16 8 2 9 3 10 23 11 4 12
REMARK SMILES IDX 1 13 5 14 17 16 18 17 22 18 19 19 21 20 20 21 8 22 6 23 7 24
REMARK H PARENT 8 25
REMARK Flexibility Score:   23.900
ROOT
ATOM      1  C   UNL     1       2.198   0.023  -0.442  1.00  0.00     0.049 A 
ATOM      2  C   UNL     1       3.537  -0.202  -0.059  1.00  0.00     0.028 A 
ATOM      3  C   UNL     1       3.894  -0.429   1.270  1.00  0.00     0.022 A 
ATOM      4  C   UNL     1       2.909  -0.449   2.242  1.00  0.00     0.041 A 
ATOM      5  Cl  UNL     1       3.327  -0.747   3.882  1.00  0.00    -0.084 Cl
ATOM      6  C   UNL     1       1.581  -0.232   1.888  1.00  0.00     0.031 A 
ATOM      7  C   UNL     1       1.195   0.029   0.546  1.00  0.00     0.029 A 
ENDROOT
BRANCH   7   8
ATOM      8  C   UNL     1      -0.289   0.249   0.250  1.00  0.00     0.177 C 
ATOM      9  C   UNL     1      -1.437   2.099   1.111  1.00  0.00     0.132 C 
ATOM     10  C   UNL     1      -1.605   2.050  -0.396  1.00  0.00     0.120 C 
ATOM     11  O   UNL     1      -0.878   0.821   1.457  1.00  0.00    -0.347 OA
ATOM     12  N   UNL     1      -0.431   1.287  -0.775  1.00  0.00    -0.256 NA
ATOM     13  C   UNL     1      -0.494   3.195   1.593  1.00  0.00     0.040 C 
BRANCH  12  14
ATOM     14  C   UNL     1      -0.424   0.837  -2.149  1.00  0.00     0.188 CG0
ATOM     15  G   UNL     1       0.955   0.425  -2.636  1.00  0.00     0.000 G0
ENDBRANCH  12  14
BRANCH   8  16
ATOM     16  C   UNL     1      -1.058  -1.074  -0.005  1.00  0.00     0.004 A 
ATOM     17  C   UNL     1      -2.407  -1.218   0.385  1.00  0.00     0.008 A 
ATOM     18  C   UNL     1      -0.463  -2.178  -0.650  1.00  0.00     0.008 A 
ATOM     19  C   UNL     1      -3.121  -2.395   0.141  1.00  0.00     0.000 A 
ATOM     20  C   UNL     1      -1.177  -3.356  -0.895  1.00  0.00     0.000 A 
ATOM     21  C   UNL     1      -2.506  -3.463  -0.501  1.00  0.00     0.000 A 
ENDBRANCH   8  16
ENDBRANCH   7   8
BRANCH   1  22
ATOM     22  N   UNL     1       2.016   0.161  -1.829  1.00  0.00    -0.325 N 
ATOM     23  C   UNL     1       0.955   0.425  -2.636  1.00  0.00     0.238 CG0
ATOM     24  O   UNL     1       1.155   0.321  -3.855  1.00  0.00    -0.273 OA
ATOM     25  H   UNL     1       2.838   0.005  -2.403  1.00  0.00     0.169 HD
ATOM     26  G   UNL     1      -0.424   0.837  -2.149  1.00  0.00     0.000 G0
ENDBRANCH   1  22
TORSDOF 1
