REMARK SMILES CCN(CC)CCOCCOC(=O)C(CC)(CC)c1ccccc1
REMARK SMILES IDX 9 1 8 2 7 3 6 4 3 5 2 6 1 7 4 8 5 9 10 10 11 11 12 12 13 13
REMARK SMILES IDX 14 14 15 15 16 16 17 17 18 18 19 19 20 20 24 21 21 22 23 23
REMARK SMILES IDX 22 24
REMARK H PARENT
ROOT
ATOM      1  C   UNL     1       0.962  -0.494  -1.641  1.00  0.00     0.201 C 
ENDROOT
BRANCH   1   2
ATOM      2  O   UNL     1       1.569  -0.800  -0.381  1.00  0.00    -0.377 OA
BRANCH   2   3
ATOM      3  C   UNL     1       2.629   0.096  -0.026  1.00  0.00     0.176 C 
BRANCH   3   4
ATOM      4  C   UNL     1       3.896  -0.138  -0.866  1.00  0.00     0.113 C 
BRANCH   4   5
ATOM      5  N   UNL     1       5.147   0.496  -0.428  1.00  0.00    -0.302 NA
BRANCH   5   6
ATOM      6  C   UNL     1       5.686   0.020   0.849  1.00  0.00     0.081 C 
ATOM      7  C   UNL     1       5.990  -1.474   0.863  1.00  0.00     0.021 C 
ENDBRANCH   5   6
BRANCH   5   8
ATOM      8  C   UNL     1       5.169   1.956  -0.574  1.00  0.00     0.081 C 
ATOM      9  C   UNL     1       4.673   2.789   0.606  1.00  0.00     0.021 C 
ENDBRANCH   5   8
ENDBRANCH   4   5
ENDBRANCH   3   4
ENDBRANCH   2   3
ENDBRANCH   1   2
BRANCH   1  10
ATOM     10  C   UNL     1      -0.302  -1.336  -1.799  1.00  0.00     0.261 C 
BRANCH  10  11
ATOM     11  O   UNL     1      -1.309  -0.813  -0.918  1.00  0.00    -0.463 OA
BRANCH  11  12
ATOM     12  C   UNL     1      -2.456  -1.547  -0.850  1.00  0.00     0.316 C 
ATOM     13  O   UNL     1      -2.649  -2.562  -1.508  1.00  0.00    -0.251 OA
BRANCH  12  14
ATOM     14  C   UNL     1      -3.460  -0.935   0.160  1.00  0.00     0.092 C 
BRANCH  14  15
ATOM     15  C   UNL     1      -2.975  -1.331   1.591  1.00  0.00     0.020 C 
ATOM     16  C   UNL     1      -1.626  -0.775   2.043  1.00  0.00     0.005 C 
ENDBRANCH  14  15
BRANCH  14  17
ATOM     17  C   UNL     1      -4.883  -1.541  -0.108  1.00  0.00     0.020 C 
ATOM     18  C   UNL     1      -5.118  -2.979   0.349  1.00  0.00     0.005 C 
ENDBRANCH  14  17
BRANCH  14  19
ATOM     19  C   UNL     1      -3.641   0.591  -0.070  1.00  0.00    -0.031 A 
ATOM     20  C   UNL     1      -3.674   1.113  -1.380  1.00  0.00     0.005 A 
ATOM     21  C   UNL     1      -3.869   1.488   0.989  1.00  0.00     0.005 A 
ATOM     22  C   UNL     1      -3.874   2.475  -1.615  1.00  0.00     0.000 A 
ATOM     23  C   UNL     1      -4.069   2.851   0.752  1.00  0.00     0.000 A 
ATOM     24  C   UNL     1      -4.065   3.346  -0.548  1.00  0.00     0.000 A 
ENDBRANCH  14  19
ENDBRANCH  12  14
ENDBRANCH  11  12
ENDBRANCH  10  11
ENDBRANCH   1  10
TORSDOF 13
