REMARK SMILES CN(C(=O)CN(CCO)CC(=O)N(C)C(C)(C)Cc1ccccc1)C(C)(C)Cc1ccccc1
REMARK SMILES IDX 6 1 5 2 3 3 4 4 2 5 1 6 25 7 26 8 27 9 28 10 29 11 30 12
REMARK SMILES IDX 34 13 31 14 33 15 32 16 7 17 8 18 9 19 10 21 11 22 12 23
REMARK SMILES IDX 13 24 14 25 15 26 16 27 17 28 18 29 19 30 20 31 24 32 21 33
REMARK SMILES IDX 23 34 22 35
REMARK H PARENT 9 20
ROOT
ATOM      1  N   UNL     1       0.249   0.506   0.738  1.00  0.00    -0.283 NA
ENDROOT
BRANCH   1   2
ATOM      2  C   UNL     1       1.699   0.649   0.385  1.00  0.00     0.185 C 
BRANCH   2   3
ATOM      3  C   UNL     1       2.028   0.338  -1.087  1.00  0.00     0.236 C 
ATOM      4  O   UNL     1       1.205  -0.208  -1.829  1.00  0.00    -0.273 OA
BRANCH   3   5
ATOM      5  N   UNL     1       3.289   0.740  -1.588  1.00  0.00    -0.339 N 
ATOM      6  C   UNL     1       3.382   0.646  -3.048  1.00  0.00     0.147 C 
BRANCH   5   7
ATOM      7  C   UNL     1       4.600   0.654  -0.803  1.00  0.00     0.041 C 
ATOM      8  C   UNL     1       4.598   1.583   0.432  1.00  0.00     0.035 C 
ATOM      9  C   UNL     1       5.792   1.157  -1.668  1.00  0.00     0.035 C 
BRANCH   7  10
ATOM     10  C   UNL     1       4.841  -0.842  -0.407  1.00  0.00     0.063 C 
BRANCH  10  11
ATOM     11  C   UNL     1       6.114  -1.167   0.341  1.00  0.00    -0.046 A 
ATOM     12  C   UNL     1       6.162  -1.093   1.740  1.00  0.00     0.004 A 
ATOM     13  C   UNL     1       7.265  -1.567  -0.353  1.00  0.00     0.004 A 
ATOM     14  C   UNL     1       7.337  -1.398   2.428  1.00  0.00     0.000 A 
ATOM     15  C   UNL     1       8.440  -1.872   0.336  1.00  0.00     0.000 A 
ATOM     16  C   UNL     1       8.477  -1.785   1.726  1.00  0.00     0.000 A 
ENDBRANCH  10  11
ENDBRANCH   7  10
ENDBRANCH   5   7
ENDBRANCH   3   5
ENDBRANCH   2   3
ENDBRANCH   1   2
BRANCH   1  17
ATOM     17  C   UNL     1       0.124   0.643   2.210  1.00  0.00     0.113 C 
BRANCH  17  18
ATOM     18  C   UNL     1      -1.098  -0.056   2.823  1.00  0.00     0.171 C 
BRANCH  18  19
ATOM     19  O   UNL     1      -0.926  -0.155   4.238  1.00  0.00    -0.395 OA
ATOM     20  H   UNL     1      -1.756  -0.522   4.590  1.00  0.00     0.210 HD
ENDBRANCH  18  19
ENDBRANCH  17  18
ENDBRANCH   1  17
BRANCH   1  21
ATOM     21  C   UNL     1      -0.532   1.550   0.014  1.00  0.00     0.185 C 
BRANCH  21  22
ATOM     22  C   UNL     1      -2.050   1.489   0.252  1.00  0.00     0.236 C 
ATOM     23  O   UNL     1      -2.558   2.393   0.925  1.00  0.00    -0.273 OA
BRANCH  22  24
ATOM     24  N   UNL     1      -2.808   0.447  -0.309  1.00  0.00    -0.339 N 
ATOM     25  C   UNL     1      -2.169  -0.625  -1.071  1.00  0.00     0.147 C 
BRANCH  24  26
ATOM     26  C   UNL     1      -4.330   0.434  -0.170  1.00  0.00     0.041 C 
ATOM     27  C   UNL     1      -4.715   0.384   1.326  1.00  0.00     0.035 C 
ATOM     28  C   UNL     1      -4.908   1.716  -0.815  1.00  0.00     0.035 C 
BRANCH  26  29
ATOM     29  C   UNL     1      -4.979  -0.817  -0.886  1.00  0.00     0.063 C 
BRANCH  29  30
ATOM     30  C   UNL     1      -6.487  -0.971  -0.859  1.00  0.00    -0.046 A 
ATOM     31  C   UNL     1      -7.115  -1.680   0.176  1.00  0.00     0.004 A 
ATOM     32  C   UNL     1      -7.278  -0.433  -1.885  1.00  0.00     0.004 A 
ATOM     33  C   UNL     1      -8.503  -1.830   0.194  1.00  0.00     0.000 A 
ATOM     34  C   UNL     1      -8.665  -0.585  -1.866  1.00  0.00     0.000 A 
ATOM     35  C   UNL     1      -9.277  -1.281  -0.825  1.00  0.00     0.000 A 
ENDBRANCH  29  30
ENDBRANCH  26  29
ENDBRANCH  24  26
ENDBRANCH  22  24
ENDBRANCH  21  22
ENDBRANCH   1  21
TORSDOF 15
