REMARK SMILES COc1ccc2c3c1O[C@H]1C(=O)CC[C@@]4(O)[C@@H](C2)N(C)CC[C@]314
REMARK SMILES IDX 3 1 4 2 5 3 6 4 18 5 17 6 19 7 20 8 21 9 22 10 23 11 10 12
REMARK SMILES IDX 9 13 8 14 7 15 11 16 12 17 13 18 14 19 15 20 2 21 1 22 16 23
REMARK H PARENT 16 24
ROOT
ATOM      1  C   UNL     1       3.007   0.473  -0.320  1.00  0.00     0.161 A 
ATOM      2  C   UNL     1       2.781   1.567   0.533  1.00  0.00     0.051 A 
ATOM      3  C   UNL     1       1.481   1.892   0.991  1.00  0.00     0.008 A 
ATOM      4  C   UNL     1       0.378   1.150   0.574  1.00  0.00    -0.038 A 
ATOM      5  C   UNL     1      -1.026   1.349   1.081  1.00  0.00     0.058 C 
ATOM      6  C   UNL     1      -2.102   0.424   0.411  1.00  0.00     0.093 C 
ATOM      7  N   UNL     1      -2.717   0.933  -0.856  1.00  0.00    -0.300 NA
ATOM      8  C   UNL     1      -3.515   2.141  -0.651  1.00  0.00     0.105 C 
ATOM      9  C   UNL     1      -1.740   1.129  -1.940  1.00  0.00     0.086 C 
ATOM     10  C   UNL     1      -0.908  -0.136  -2.217  1.00  0.00     0.035 C 
ATOM     11  C   UNL     1      -0.385  -0.788  -0.914  1.00  0.00     0.075 C 
ATOM     12  C   UNL     1       0.552  -1.970  -1.190  1.00  0.00     0.253 C 
ATOM     13  O   UNL     1       1.872  -1.404  -1.468  1.00  0.00    -0.477 OA
ATOM     14  C   UNL     1       1.899  -0.256  -0.706  1.00  0.00     0.166 A 
ATOM     15  C   UNL     1       0.630   0.113  -0.302  1.00  0.00     0.015 A 
ATOM     16  C   UNL     1       0.665  -2.971  -0.024  1.00  0.00     0.174 C 
ATOM     17  O   UNL     1       1.671  -3.661   0.161  1.00  0.00    -0.295 OA
ATOM     18  C   UNL     1      -0.551  -3.170   0.852  1.00  0.00     0.083 C 
ATOM     19  C   UNL     1      -1.135  -1.832   1.290  1.00  0.00     0.046 C 
ATOM     20  C   UNL     1      -1.543  -1.003   0.068  1.00  0.00     0.095 C 
ENDROOT
BRANCH   1  21
ATOM     21  O   UNL     1       4.215   0.056  -0.794  1.00  0.00    -0.493 OA
ATOM     22  C   UNL     1       5.366   0.739  -0.321  1.00  0.00     0.278 C 
ENDBRANCH   1  21
BRANCH  20  23
ATOM     23  O   UNL     1      -2.587  -1.755  -0.586  1.00  0.00    -0.387 OA
ATOM     24  H   UNL     1      -3.158  -1.077  -1.012  1.00  0.00     0.211 HD
ENDBRANCH  20  23
TORSDOF 2
