REMARK SMILES O=C(O)c1c(O)c(-c2ccccc2)nc2ccccc12
REMARK SMILES IDX 4 1 5 2 7 3 14 4 15 5 16 6 17 7 18 8 19 9 20 10 2 11 1 12
REMARK SMILES IDX 3 13 6 15 8 17 9 18 13 19 10 20 12 21 11 22
REMARK H PARENT 3 14 6 16
ROOT
ATOM      1  C   UNL     1       1.424   1.254   0.105  1.00  0.00     0.113 A 
ATOM      2  C   UNL     1       0.019   1.197   0.178  1.00  0.00     0.157 A 
ATOM      3  C   UNL     1      -0.609  -0.042   0.056  1.00  0.00     0.114 A 
ATOM      4  N   UNL     1       0.104  -1.181  -0.128  1.00  0.00    -0.244 NA
ATOM      5  C   UNL     1       1.437  -1.131  -0.220  1.00  0.00     0.072 A 
ATOM      6  C   UNL     1       2.099  -2.333  -0.432  1.00  0.00     0.029 A 
ATOM      7  C   UNL     1       3.486  -2.405  -0.555  1.00  0.00     0.002 A 
ATOM      8  C   UNL     1       4.235  -1.245  -0.467  1.00  0.00     0.001 A 
ATOM      9  C   UNL     1       3.591  -0.026  -0.253  1.00  0.00     0.011 A 
ATOM     10  C   UNL     1       2.176   0.064  -0.117  1.00  0.00     0.019 A 
ENDROOT
BRANCH   1  11
ATOM     11  C   UNL     1       2.132   2.551   0.305  1.00  0.00     0.340 C 
ATOM     12  O   UNL     1       3.268   2.734   0.694  1.00  0.00    -0.246 OA
BRANCH  11  13
ATOM     13  O   UNL     1       1.360   3.614  -0.013  1.00  0.00    -0.478 OA
ATOM     14  H   UNL     1       1.970   4.375   0.128  1.00  0.00     0.297 HD
ENDBRANCH  11  13
ENDBRANCH   1  11
BRANCH   2  15
ATOM     15  O   UNL     1      -0.751   2.312   0.399  1.00  0.00    -0.505 OA
ATOM     16  H   UNL     1      -0.193   3.105   0.261  1.00  0.00     0.293 HD
ENDBRANCH   2  15
BRANCH   3  17
ATOM     17  C   UNL     1      -2.073  -0.252   0.119  1.00  0.00     0.004 A 
ATOM     18  C   UNL     1      -2.605  -1.343   0.833  1.00  0.00     0.010 A 
ATOM     19  C   UNL     1      -2.984   0.589  -0.543  1.00  0.00     0.010 A 
ATOM     20  C   UNL     1      -3.982  -1.572   0.899  1.00  0.00     0.001 A 
ATOM     21  C   UNL     1      -4.364   0.364  -0.480  1.00  0.00     0.001 A 
ATOM     22  C   UNL     1      -4.862  -0.716   0.244  1.00  0.00     0.000 A 
ENDBRANCH   3  17
TORSDOF 4
