REMARK SMILES C[C@]12C/C(=C/O)C(=O)C[C@@H]1CC[C@@H]1[C@@H]2CC[C@@]2(C)[C@H]1CC[C@]2(C)O
REMARK SMILES IDX 23 1 22 2 21 3 20 4 19 5 13 6 12 7 11 8 10 9 9 10 7 11 8 12
REMARK SMILES IDX 4 13 3 14 2 15 1 16 14 17 15 18 16 19 17 20 18 21 5 22 24 23
REMARK SMILES IDX 6 25
REMARK H PARENT 24 24 6 26
ROOT
ATOM      1  C   UNL     1      -4.298   1.242   1.541  1.00  0.00     0.042 C 
ATOM      2  C   UNL     1      -4.062   0.258   0.389  1.00  0.00     0.068 C 
ATOM      3  C   UNL     1      -4.257  -1.202   0.875  1.00  0.00     0.036 C 
ATOM      4  C   UNL     1      -2.854  -1.822   1.011  1.00  0.00     0.007 C 
ATOM      5  C   UNL     1      -1.896  -0.651   0.823  1.00  0.00     0.001 C 
ATOM      6  C   UNL     1      -0.439  -0.951   0.443  1.00  0.00    -0.004 C 
ATOM      7  C   UNL     1       0.225  -1.875   1.472  1.00  0.00     0.004 C 
ATOM      8  C   UNL     1       1.700  -2.107   1.168  1.00  0.00     0.005 C 
ATOM      9  C   UNL     1       2.467  -0.783   1.049  1.00  0.00     0.003 C 
ATOM     10  C   UNL     1       3.960  -1.054   0.842  1.00  0.00     0.085 C 
ATOM     11  C   UNL     1       4.777   0.202   0.636  1.00  0.00     0.162 C 
ATOM     12  O   UNL     1       5.980   0.230   0.908  1.00  0.00    -0.294 OA
ATOM     13  C   UNL     1       4.132   1.374  -0.025  1.00  0.00     0.030 C 
ATOM     14  C   UNL     1       2.639   1.511   0.068  1.00  0.00     0.050 C 
ATOM     15  C   UNL     1       1.861   0.169  -0.030  1.00  0.00    -0.022 C 
ATOM     16  C   UNL     1       2.024  -0.399  -1.463  1.00  0.00     0.012 C 
ATOM     17  C   UNL     1       0.341   0.396   0.320  1.00  0.00    -0.001 C 
ATOM     18  C   UNL     1      -0.386   1.409  -0.604  1.00  0.00     0.005 C 
ATOM     19  C   UNL     1      -1.875   1.590  -0.257  1.00  0.00     0.010 C 
ATOM     20  C   UNL     1      -2.619   0.245  -0.205  1.00  0.00    -0.001 C 
ATOM     21  C   UNL     1      -2.655  -0.362  -1.639  1.00  0.00     0.015 C 
ATOM     22  C   UNL     1       4.896   2.255  -0.690  1.00  0.00     0.190 C 
ENDROOT
BRANCH   2  23
ATOM     23  O   UNL     1      -5.041   0.551  -0.605  1.00  0.00    -0.390 OA
ATOM     24  H   UNL     1      -4.871   1.451  -0.934  1.00  0.00     0.211 HD
ENDBRANCH   2  23
BRANCH  22  25
ATOM     25  O   UNL     1       6.262   2.219  -0.800  1.00  0.00    -0.515 OA
ATOM     26  H   UNL     1       6.595   1.501  -0.213  1.00  0.00     0.292 HD
ENDBRANCH  22  25
TORSDOF 2
