REMARK SMILES O=C1Nc2ccccc2C1(c1ccc(O)cc1)c1ccc(O)cc1
REMARK SMILES IDX 10 1 2 2 1 3 3 4 4 5 9 6 8 7 7 8 6 9 5 10 11 12 14 13 13 14
REMARK SMILES IDX 16 15 12 16 17 17 15 18 18 20 19 21 24 22 20 23 23 24 21 25
REMARK SMILES IDX 22 26
REMARK H PARENT 3 11 15 19 22 27
ROOT
ATOM      1  C   UNL     1      -0.301  -0.154  -0.466  1.00  0.00     0.126 C 
ATOM      2  C   UNL     1      -1.032  -0.401  -1.854  1.00  0.00     0.244 C 
ATOM      3  O   UNL     1      -1.091   0.346  -2.822  1.00  0.00    -0.273 OA
ATOM      4  N   UNL     1      -1.616  -1.663  -1.817  1.00  0.00    -0.324 N 
ATOM      5  C   UNL     1      -1.342  -2.314  -0.629  1.00  0.00     0.046 A 
ATOM      6  C   UNL     1      -0.568  -1.508   0.206  1.00  0.00     0.000 A 
ATOM      7  C   UNL     1      -0.146  -1.993   1.438  1.00  0.00     0.008 A 
ATOM      8  C   UNL     1      -0.533  -3.284   1.814  1.00  0.00     0.000 A 
ATOM      9  C   UNL     1      -1.325  -4.074   0.963  1.00  0.00     0.002 A 
ATOM     10  C   UNL     1      -1.737  -3.590  -0.280  1.00  0.00     0.026 A 
ATOM     11  H   UNL     1      -2.137  -2.042  -2.592  1.00  0.00     0.169 HD
ENDROOT
BRANCH   1  12
ATOM     12  C   UNL     1      -1.004   1.060   0.196  1.00  0.00    -0.023 A 
ATOM     13  C   UNL     1      -2.255   3.323   1.310  1.00  0.00     0.115 A 
ATOM     14  C   UNL     1      -2.478   2.069   1.860  1.00  0.00     0.046 A 
ATOM     15  C   UNL     1      -1.428   3.474   0.206  1.00  0.00     0.046 A 
ATOM     16  C   UNL     1      -1.863   0.943   1.304  1.00  0.00     0.009 A 
ATOM     17  C   UNL     1      -0.811   2.349  -0.348  1.00  0.00     0.009 A 
BRANCH  13  18
ATOM     18  O   UNL     1      -2.879   4.391   1.883  1.00  0.00    -0.508 OA
ATOM     19  H   UNL     1      -2.660   5.186   1.370  1.00  0.00     0.293 HD
ENDBRANCH  13  18
ENDBRANCH   1  12
BRANCH   1  20
ATOM     20  C   UNL     1       1.228   0.045  -0.630  1.00  0.00    -0.023 A 
ATOM     21  C   UNL     1       1.920  -0.397  -1.773  1.00  0.00     0.009 A 
ATOM     22  C   UNL     1       1.987   0.627   0.409  1.00  0.00     0.009 A 
ATOM     23  C   UNL     1       3.304  -0.237  -1.884  1.00  0.00     0.046 A 
ATOM     24  C   UNL     1       3.371   0.787   0.298  1.00  0.00     0.046 A 
ATOM     25  C   UNL     1       4.017   0.354  -0.851  1.00  0.00     0.115 A 
BRANCH  25  26
ATOM     26  O   UNL     1       5.365   0.489  -1.004  1.00  0.00    -0.508 OA
ATOM     27  H   UNL     1       5.723   0.929  -0.216  1.00  0.00     0.293 HD
ENDBRANCH  25  26
ENDBRANCH   1  20
TORSDOF 4
