REMARK SMILES CN(C)[C@@H]1C(O)=C(C(N)=O)C(=O)[C@@]2(O)C(O)=C3C(=O)c4c(O)cccc4[C@@](C)(O)[C@H]3[C@H](O)[C@@H]12
REMARK SMILES IDX 4 1 33 2 31 3 30 4 17 5 15 6 13 7 11 8 12 9 7 10 5 11 18 12
REMARK SMILES IDX 19 13 20 14 21 15 23 16 24 17 25 18 26 19 27 20 28 21 2 22
REMARK SMILES IDX 1 23 3 24 6 25 32 27 14 29 8 31 9 32 10 33 16 36 29 38 22 40
REMARK H PARENT 6 26 32 28 14 30 9 34 9 35 16 37 29 39 22 41
ROOT
ATOM      1  C   UNL     1      -2.828   0.654   0.246  1.00  0.00     0.132 C 
ATOM      2  C   UNL     1      -1.331   0.954  -0.042  1.00  0.00     0.091 C 
ATOM      3  C   UNL     1      -0.686  -0.038  -1.047  1.00  0.00     0.134 C 
ATOM      4  C   UNL     1       0.844   0.214  -1.266  1.00  0.00     0.092 C 
ATOM      5  C   UNL     1       1.489   1.007  -0.159  1.00  0.00     0.050 C 
ATOM      6  C   UNL     1       0.889   1.329   0.995  1.00  0.00     0.140 C 
ATOM      7  C   UNL     1      -0.548   0.964   1.278  1.00  0.00     0.192 C 
ATOM      8  C   UNL     1      -0.641  -0.429   1.937  1.00  0.00     0.211 C 
ATOM      9  O   UNL     1       0.322  -0.968   2.500  1.00  0.00    -0.290 OA
ATOM     10  C   UNL     1      -1.961  -1.136   1.866  1.00  0.00     0.125 C 
ATOM     11  C   UNL     1      -2.942  -0.634   1.074  1.00  0.00     0.126 C 
ATOM     12  C   UNL     1       2.894   1.403  -0.432  1.00  0.00     0.197 C 
ATOM     13  O   UNL     1       3.343   2.519  -0.192  1.00  0.00    -0.289 OA
ATOM     14  C   UNL     1       3.748   0.351  -1.036  1.00  0.00     0.070 A 
ATOM     15  C   UNL     1       5.144   0.554  -1.084  1.00  0.00     0.127 A 
ATOM     16  C   UNL     1       5.990  -0.447  -1.547  1.00  0.00     0.047 A 
ATOM     17  C   UNL     1       5.455  -1.661  -1.951  1.00  0.00     0.004 A 
ATOM     18  C   UNL     1       4.070  -1.868  -1.918  1.00  0.00     0.008 A 
ATOM     19  C   UNL     1       3.184  -0.858  -1.490  1.00  0.00    -0.001 A 
ATOM     20  C   UNL     1       1.670  -1.103  -1.465  1.00  0.00     0.097 C 
ATOM     21  C   UNL     1       1.177  -1.817  -2.745  1.00  0.00     0.048 C 
ENDROOT
BRANCH   1  22
ATOM     22  N   UNL     1      -3.454   1.826   0.952  1.00  0.00    -0.299 NA
ATOM     23  C   UNL     1      -4.804   1.515   1.485  1.00  0.00     0.105 C 
ATOM     24  C   UNL     1      -3.617   2.965   0.015  1.00  0.00     0.105 C 
ENDBRANCH   1  22
BRANCH  11  25
ATOM     25  O   UNL     1      -4.167  -1.288   0.891  1.00  0.00    -0.510 OA
ATOM     26  H   UNL     1      -4.240  -2.046   1.516  1.00  0.00     0.293 HD
ENDBRANCH  11  25
BRANCH   3  27
ATOM     27  O   UNL     1      -1.355   0.135  -2.305  1.00  0.00    -0.392 OA
ATOM     28  H   UNL     1      -1.904  -0.664  -2.468  1.00  0.00     0.210 HD
ENDBRANCH   3  27
BRANCH   7  29
ATOM     29  O   UNL     1      -1.019   1.944   2.210  1.00  0.00    -0.374 OA
ATOM     30  H   UNL     1      -1.963   2.115   2.001  1.00  0.00     0.212 HD
ENDBRANCH   7  29
BRANCH  10  31
ATOM     31  C   UNL     1      -2.218  -2.408   2.610  1.00  0.00     0.255 C 
ATOM     32  N   UNL     1      -1.147  -3.078   3.112  1.00  0.00    -0.365 N 
ATOM     33  O   UNL     1      -3.356  -2.855   2.735  1.00  0.00    -0.269 OA
ATOM     34  H   UNL     1      -1.292  -3.930   3.638  1.00  0.00     0.159 HD
ATOM     35  H   UNL     1      -0.192  -2.727   3.000  1.00  0.00     0.159 HD
ENDBRANCH  10  31
BRANCH   6  36
ATOM     36  O   UNL     1       1.534   2.068   1.972  1.00  0.00    -0.508 OA
ATOM     37  H   UNL     1       0.859   2.253   2.648  1.00  0.00     0.293 HD
ENDBRANCH   6  36
BRANCH  20  38
ATOM     38  O   UNL     1       1.403  -1.994  -0.367  1.00  0.00    -0.385 OA
ATOM     39  H   UNL     1       1.823  -1.618   0.432  1.00  0.00     0.211 HD
ENDBRANCH  20  38
BRANCH  15  40
ATOM     40  O   UNL     1       5.758   1.708  -0.666  1.00  0.00    -0.507 OA
ATOM     41  H   UNL     1       5.058   2.337  -0.367  1.00  0.00     0.293 HD
ENDBRANCH  15  40
TORSDOF 8
