REMARK SMILES CCCCCCCCCCCCCCCC(=O)OC1CCCn2c1nc(C)c(CCN1CCC(c3noc4cc(F)ccc34)CC1)c2=O
REMARK SMILES IDX 12 1 11 2 10 3 9 4 8 5 7 6 6 7 5 8 4 9 3 10 2 11 1 12 13 13
REMARK SMILES IDX 14 14 15 15 16 16 17 17 18 18 19 19 20 20 24 21 21 22 25 23
REMARK SMILES IDX 23 24 22 25 26 26 47 27 28 28 48 29 27 30 29 31 30 32 31 33
REMARK SMILES IDX 32 34 46 35 33 36 45 37 34 38 35 39 36 40 44 41 37 42 38 43
REMARK SMILES IDX 43 44 39 45 42 46 40 47 41 48
REMARK H PARENT
ROOT
ATOM      1  C   UNL     1       4.898  -0.518   0.992  1.00  0.00     0.000 C 
ENDROOT
BRANCH   1   2
ATOM      2  C   UNL     1       4.904  -0.379  -0.533  1.00  0.00     0.000 C 
BRANCH   2   3
ATOM      3  C   UNL     1       6.310  -0.300  -1.139  1.00  0.00     0.000 C 
BRANCH   3   4
ATOM      4  C   UNL     1       7.199  -1.496  -0.792  1.00  0.00     0.000 C 
BRANCH   4   5
ATOM      5  C   UNL     1       8.460  -1.589  -1.658  1.00  0.00     0.000 C 
BRANCH   5   6
ATOM      6  C   UNL     1       9.390  -0.379  -1.528  1.00  0.00    -0.000 C 
BRANCH   6   7
ATOM      7  C   UNL     1      10.672  -0.587  -2.339  1.00  0.00    -0.000 C 
BRANCH   7   8
ATOM      8  C   UNL     1      11.595   0.633  -2.347  1.00  0.00    -0.000 C 
BRANCH   8   9
ATOM      9  C   UNL     1      12.142   1.090  -0.989  1.00  0.00    -0.000 C 
BRANCH   9  10
ATOM     10  C   UNL     1      13.104   0.103  -0.318  1.00  0.00    -0.000 C 
BRANCH  10  11
ATOM     11  C   UNL     1      12.419  -0.825   0.687  1.00  0.00    -0.003 C 
ATOM     12  C   UNL     1      13.433  -1.682   1.434  1.00  0.00     0.004 C 
ENDBRANCH  10  11
ENDBRANCH   9  10
ENDBRANCH   8   9
ENDBRANCH   7   8
ENDBRANCH   6   7
ENDBRANCH   5   6
ENDBRANCH   4   5
ENDBRANCH   3   4
ENDBRANCH   2   3
ENDBRANCH   1   2
BRANCH   1  13
ATOM     13  C   UNL     1       3.516  -0.295   1.617  1.00  0.00     0.001 C 
BRANCH  13  14
ATOM     14  C   UNL     1       2.449  -1.286   1.132  1.00  0.00     0.012 C 
BRANCH  14  15
ATOM     15  C   UNL     1       1.123  -1.134   1.880  1.00  0.00     0.123 C 
BRANCH  15  16
ATOM     16  C   UNL     1       0.521   0.238   1.701  1.00  0.00     0.306 C 
ATOM     17  O   UNL     1       0.426   1.059   2.601  1.00  0.00    -0.252 OA
BRANCH  16  18
ATOM     18  O   UNL     1       0.152   0.428   0.405  1.00  0.00    -0.454 OA
BRANCH  18  19
ATOM     19  C   UNL     1      -0.298   1.745   0.077  1.00  0.00     0.242 C 
ATOM     20  C   UNL     1       0.088   2.025  -1.378  1.00  0.00     0.055 C 
ATOM     21  C   UNL     1      -1.820   1.893   0.196  1.00  0.00     0.153 C 
ATOM     22  C   UNL     1      -0.706   1.183  -2.386  1.00  0.00     0.026 C 
ATOM     23  N   UNL     1      -2.325   2.615   1.140  1.00  0.00    -0.235 NA
ATOM     24  N   UNL     1      -2.571   1.267  -0.773  1.00  0.00    -0.293 N 
ATOM     25  C   UNL     1      -1.896   0.450  -1.767  1.00  0.00     0.127 C 
ATOM     26  C   UNL     1      -3.689   2.767   1.187  1.00  0.00     0.048 C 
ATOM     27  C   UNL     1      -3.937   1.441  -0.829  1.00  0.00     0.257 C 
ATOM     28  C   UNL     1      -4.536   2.236   0.283  1.00  0.00     0.040 C 
ATOM     29  O   UNL     1      -4.629   1.019  -1.754  1.00  0.00    -0.269 OA
ATOM     30  C   UNL     1      -4.133   3.603   2.363  1.00  0.00     0.067 C 
BRANCH  28  31
ATOM     31  C   UNL     1      -6.032   2.433   0.253  1.00  0.00     0.059 C 
BRANCH  31  32
ATOM     32  C   UNL     1      -6.820   1.465   1.161  1.00  0.00     0.089 C 
BRANCH  32  33
ATOM     33  N   UNL     1      -6.755   0.042   0.782  1.00  0.00    -0.303 NA
ATOM     34  C   UNL     1      -7.425  -0.261  -0.491  1.00  0.00     0.085 C 
ATOM     35  C   UNL     1      -7.268  -0.833   1.847  1.00  0.00     0.085 C 
ATOM     36  C   UNL     1      -8.950  -0.182  -0.429  1.00  0.00     0.026 C 
ATOM     37  C   UNL     1      -8.786  -0.772   2.020  1.00  0.00     0.026 C 
ATOM     38  C   UNL     1      -9.508  -1.065   0.695  1.00  0.00     0.045 C 
BRANCH  38  39
ATOM     39  C   UNL     1     -11.000  -0.935   0.793  1.00  0.00     0.095 A 
ATOM     40  N   UNL     1     -11.564   0.015   1.553  1.00  0.00    -0.083 NA
ATOM     41  C   UNL     1     -11.987  -1.712   0.125  1.00  0.00     0.045 A 
ATOM     42  O   UNL     1     -12.931  -0.140   1.408  1.00  0.00    -0.356 OA
ATOM     43  C   UNL     1     -13.185  -1.165   0.553  1.00  0.00     0.170 A 
ATOM     44  C   UNL     1     -12.017  -2.790  -0.780  1.00  0.00     0.017 A 
ATOM     45  C   UNL     1     -14.441  -1.607   0.153  1.00  0.00     0.090 A 
ATOM     46  C   UNL     1     -13.267  -3.260  -1.207  1.00  0.00     0.040 A 
ATOM     47  C   UNL     1     -14.446  -2.672  -0.745  1.00  0.00     0.127 A 
ATOM     48  F   UNL     1     -15.621  -3.151  -1.175  1.00  0.00    -0.207 F 
ENDBRANCH  38  39
ENDBRANCH  32  33
ENDBRANCH  31  32
ENDBRANCH  28  31
ENDBRANCH  18  19
ENDBRANCH  16  18
ENDBRANCH  15  16
ENDBRANCH  14  15
ENDBRANCH  13  14
ENDBRANCH   1  13
TORSDOF 20
