REMARK SMILES CC(=N)N1CC[C@H](SC2=C(C(=O)O)N3C(=O)[C@H]([C@@H](C)O)[C@H]3C2)C1
REMARK SMILES IDX 17 1 21 2 22 3 9 4 10 5 14 6 15 7 16 8 18 9 19 10 20 11 8 13
REMARK SMILES IDX 7 14 6 15 23 16 5 17 4 18 2 19 3 20 1 21 11 23 12 24 13 25
REMARK H PARENT 20 12 3 22 13 26
ROOT
ATOM      1  C   UNL     1      -3.802  -0.105   1.414  1.00  0.00     0.131 C 
ATOM      2  C   UNL     1      -2.646   0.526   0.584  1.00  0.00     0.111 C 
ATOM      3  C   UNL     1      -1.236   0.700   1.157  1.00  0.00     0.071 C 
ATOM      4  C   UNL     1      -0.481  -0.439   0.526  1.00  0.00     0.019 C 
ATOM      5  C   UNL     1      -1.312  -1.224  -0.176  1.00  0.00     0.140 C 
ATOM      6  N   UNL     1      -2.609  -0.748  -0.194  1.00  0.00    -0.301 N 
ATOM      7  C   UNL     1      -3.550  -1.373   0.585  1.00  0.00     0.235 C 
ATOM      8  O   UNL     1      -3.945  -2.516   0.621  1.00  0.00    -0.274 OA
ENDROOT
BRANCH   1   9
ATOM      9  C   UNL     1      -5.195   0.502   1.329  1.00  0.00     0.125 C 
ATOM     10  C   UNL     1      -5.797   0.505  -0.068  1.00  0.00     0.039 C 
BRANCH   9  11
ATOM     11  O   UNL     1      -6.065  -0.212   2.206  1.00  0.00    -0.393 OA
ATOM     12  H   UNL     1      -6.153  -1.131   1.882  1.00  0.00     0.210 HD
ENDBRANCH   9  11
ENDBRANCH   1   9
BRANCH   4  13
ATOM     13  S   UNL     1       1.203  -0.640   0.807  1.00  0.00    -0.123 SA
BRANCH  13  14
ATOM     14  C   UNL     1       1.888  -0.377  -0.876  1.00  0.00     0.072 C 
ATOM     15  C   UNL     1       2.030   1.109  -1.194  1.00  0.00     0.038 C 
ATOM     16  C   UNL     1       3.345  -0.862  -0.963  1.00  0.00     0.132 C 
ATOM     17  C   UNL     1       3.350   1.502  -0.533  1.00  0.00     0.119 C 
ATOM     18  N   UNL     1       4.159   0.290  -0.564  1.00  0.00    -0.360 N 
BRANCH  18  19
ATOM     19  C   UNL     1       5.482   0.211  -0.196  1.00  0.00     0.093 C 
ATOM     20  N   UNL     1       6.159   1.197   0.293  1.00  0.00    -0.289 NA
ATOM     21  C   UNL     1       6.225  -1.100  -0.358  1.00  0.00     0.086 C 
ATOM     22  H   UNL     1       5.564   2.022   0.368  1.00  0.00     0.189 HD
ENDBRANCH  18  19
ENDBRANCH  13  14
ENDBRANCH   4  13
BRANCH   5  23
ATOM     23  C   UNL     1      -1.004  -2.482  -0.883  1.00  0.00     0.353 C 
ATOM     24  O   UNL     1      -1.285  -2.726  -2.043  1.00  0.00    -0.245 OA
BRANCH  23  25
ATOM     25  O   UNL     1      -0.383  -3.379  -0.102  1.00  0.00    -0.477 OA
ATOM     26  H   UNL     1      -0.305  -4.173  -0.665  1.00  0.00     0.297 HD
ENDBRANCH  23  25
ENDBRANCH   5  23
TORSDOF 7
