REMARK SMILES C#CCN(C)Cc1ccccc1
REMARK SMILES IDX 5 1 4 2 3 3 2 4 1 5 6 6 7 7 8 8 12 9 9 10 11 11 10 12
REMARK H PARENT
ROOT
ATOM      1  C   UNL     1      -2.446  -1.574  -0.310  1.00  0.00     0.106 C 
ATOM      2  N   UNL     1      -1.334  -0.618  -0.339  1.00  0.00    -0.291 NA
ENDROOT
BRANCH   2   3
ATOM      3  C   UNL     1      -1.730   0.669   0.259  1.00  0.00     0.174 C 
ATOM      4  C   UNL     1      -2.722   1.378  -0.569  1.00  0.00    -0.091 C 
ATOM      5  C   UNL     1      -3.527   1.962  -1.243  1.00  0.00     0.005 C 
ENDBRANCH   2   3
BRANCH   2   6
ATOM      6  C   UNL     1      -0.179  -1.195   0.375  1.00  0.00     0.120 C 
BRANCH   6   7
ATOM      7  C   UNL     1       1.113  -0.430   0.168  1.00  0.00    -0.034 A 
ATOM      8  C   UNL     1       1.564  -0.123  -1.125  1.00  0.00     0.005 A 
ATOM      9  C   UNL     1       1.899  -0.049   1.266  1.00  0.00     0.005 A 
ATOM     10  C   UNL     1       2.764   0.564  -1.315  1.00  0.00     0.000 A 
ATOM     11  C   UNL     1       3.100   0.637   1.074  1.00  0.00     0.000 A 
ATOM     12  C   UNL     1       3.531   0.944  -0.216  1.00  0.00     0.000 A 
ENDBRANCH   6   7
ENDBRANCH   2   6
TORSDOF 3
