REMARK SMILES C#CCOc1ccc(N)cc1C(=O)NCCCC
REMARK SMILES IDX 14 1 12 2 13 3 15 5 16 6 17 7 18 8 11 9 10 10 5 11 8 12 6 13
REMARK SMILES IDX 7 14 4 15 3 16 2 17 1 18 9 19
REMARK H PARENT 14 4 9 20 9 21
ROOT
ATOM      1  N   UNL     1       0.588   0.994   0.051  1.00  0.00    -0.352 N 
ATOM      2  C   UNL     1      -0.391   0.403   0.817  1.00  0.00     0.255 C 
ATOM      3  O   UNL     1      -0.541   0.637   2.012  1.00  0.00    -0.269 OA
ATOM      4  H   UNL     1       0.663   0.731  -0.927  1.00  0.00     0.163 HD
ENDROOT
BRANCH   1   5
ATOM      5  C   UNL     1       1.553   1.929   0.587  1.00  0.00     0.116 C 
BRANCH   5   6
ATOM      6  C   UNL     1       2.903   1.271   0.874  1.00  0.00     0.021 C 
BRANCH   6   7
ATOM      7  C   UNL     1       2.855   0.294   2.051  1.00  0.00    -0.002 C 
ATOM      8  C   UNL     1       4.234  -0.270   2.359  1.00  0.00     0.004 C 
ENDBRANCH   6   7
ENDBRANCH   5   6
ENDBRANCH   1   5
BRANCH   2   9
ATOM      9  C   UNL     1      -1.283  -0.581   0.133  1.00  0.00     0.083 A 
ATOM     10  C   UNL     1      -1.967  -1.500   0.947  1.00  0.00     0.043 A 
ATOM     11  C   UNL     1      -1.473  -0.638  -1.254  1.00  0.00     0.133 A 
ATOM     12  C   UNL     1      -2.832  -2.452   0.399  1.00  0.00     0.032 A 
ATOM     13  C   UNL     1      -2.269  -1.639  -1.815  1.00  0.00     0.049 A 
ATOM     14  C   UNL     1      -2.930  -2.549  -0.990  1.00  0.00     0.029 A 
BRANCH  11  15
ATOM     15  O   UNL     1      -0.839   0.230  -2.107  1.00  0.00    -0.480 OA
BRANCH  15  16
ATOM     16  C   UNL     1      -1.723   1.303  -2.467  1.00  0.00     0.318 C 
ATOM     17  C   UNL     1      -0.970   2.283  -3.263  1.00  0.00    -0.065 C 
ATOM     18  C   UNL     1      -0.353   3.088  -3.907  1.00  0.00     0.007 C 
ENDBRANCH  15  16
ENDBRANCH  11  15
BRANCH  12  19
ATOM     19  N   UNL     1      -3.402  -3.435   1.215  1.00  0.00    -0.399 N 
ATOM     20  H   UNL     1      -4.231  -3.873   0.826  1.00  0.00     0.156 HD
ATOM     21  H   UNL     1      -3.536  -3.143   2.178  1.00  0.00     0.156 HD
ENDBRANCH  12  19
ENDBRANCH   2   9
TORSDOF 7
