REMARK SMILES CCN1C(=O)N(c2c(F)c(OC)cc(OC)c2F)Cc2cnc3[nH]c(CN4CCOCC4)cc3c21
REMARK SMILES IDX 3 1 4 2 5 3 6 4 19 5 20 6 21 7 22 8 23 9 24 10 25 11 33 12
REMARK SMILES IDX 34 13 35 14 2 16 1 17 7 18 8 19 17 20 10 21 14 22 13 23 9 24
REMARK SMILES IDX 18 25 11 26 12 27 15 28 16 29 26 30 27 31 28 32 32 33 29 34
REMARK SMILES IDX 31 35 30 36
REMARK H PARENT 24 15
ROOT
ATOM      1  N   UNL     1       0.428  -1.573   0.040  1.00  0.00    -0.293 N 
ATOM      2  C   UNL     1       1.801  -1.453  -0.242  1.00  0.00     0.329 C 
ATOM      3  O   UNL     1       2.341  -2.135  -1.117  1.00  0.00    -0.248 OA
ATOM      4  N   UNL     1       2.510  -0.529   0.530  1.00  0.00    -0.284 N 
ATOM      5  C   UNL     1       2.055  -0.273   1.878  1.00  0.00     0.167 C 
ATOM      6  C   UNL     1       0.579  -0.073   1.925  1.00  0.00     0.015 A 
ATOM      7  C   UNL     1       0.005   0.711   2.919  1.00  0.00     0.121 A 
ATOM      8  N   UNL     1      -1.313   0.905   3.097  1.00  0.00    -0.238 NA
ATOM      9  C   UNL     1      -2.064   0.239   2.205  1.00  0.00     0.139 A 
ATOM     10  N   UNL     1      -3.428   0.302   2.192  1.00  0.00    -0.342 N 
ATOM     11  C   UNL     1      -3.926  -0.460   1.168  1.00  0.00     0.031 A 
ATOM     12  C   UNL     1      -2.841  -1.024   0.523  1.00  0.00     0.037 A 
ATOM     13  C   UNL     1      -1.637  -0.594   1.168  1.00  0.00     0.043 A 
ATOM     14  C   UNL     1      -0.234  -0.764   1.016  1.00  0.00     0.063 A 
ATOM     15  H   UNL     1      -3.977   0.870   2.821  1.00  0.00     0.168 HD
ENDROOT
BRANCH   1  16
ATOM     16  C   UNL     1      -0.318  -2.503  -0.800  1.00  0.00     0.124 C 
ATOM     17  C   UNL     1      -0.726  -1.889  -2.133  1.00  0.00     0.028 C 
ENDBRANCH   1  16
BRANCH   4  18
ATOM     18  C   UNL     1       3.861  -0.197   0.167  1.00  0.00     0.125 A 
ATOM     19  C   UNL     1       4.186   0.103  -1.165  1.00  0.00     0.192 A 
ATOM     20  C   UNL     1       4.895  -0.116   1.109  1.00  0.00     0.192 A 
ATOM     21  C   UNL     1       5.493   0.436  -1.557  1.00  0.00     0.160 A 
ATOM     22  C   UNL     1       6.213   0.201   0.742  1.00  0.00     0.160 A 
ATOM     23  C   UNL     1       6.507   0.476  -0.596  1.00  0.00     0.099 A 
ATOM     24  F   UNL     1       3.212   0.167  -2.091  1.00  0.00    -0.200 F 
ATOM     25  F   UNL     1       4.650  -0.389   2.402  1.00  0.00    -0.200 F 
BRANCH  21  26
ATOM     26  O   UNL     1       5.654   0.717  -2.888  1.00  0.00    -0.493 OA
ATOM     27  C   UNL     1       6.958   1.050  -3.344  1.00  0.00     0.278 C 
ENDBRANCH  21  26
BRANCH  22  28
ATOM     28  O   UNL     1       7.118   0.222   1.772  1.00  0.00    -0.493 OA
ATOM     29  C   UNL     1       8.493   0.349   1.433  1.00  0.00     0.278 C 
ENDBRANCH  22  28
ENDBRANCH   4  18
BRANCH  11  30
ATOM     30  C   UNL     1      -5.392  -0.560   0.909  1.00  0.00     0.138 C 
BRANCH  30  31
ATOM     31  N   UNL     1      -6.006   0.773   0.769  1.00  0.00    -0.293 NA
ATOM     32  C   UNL     1      -7.482   0.642   0.682  1.00  0.00     0.113 C 
ATOM     33  C   UNL     1      -5.526   1.471  -0.444  1.00  0.00     0.113 C 
ATOM     34  C   UNL     1      -8.078   0.786  -0.734  1.00  0.00     0.175 C 
ATOM     35  C   UNL     1      -5.947   0.799  -1.767  1.00  0.00     0.175 C 
ATOM     36  O   UNL     1      -7.238   0.172  -1.712  1.00  0.00    -0.379 OA
ENDBRANCH  30  31
ENDBRANCH  11  30
TORSDOF 6
