REMARK SMILES CC(C)=CCN1CCC2(C)c3cc(O)ccc3CC1C2C
REMARK SMILES IDX 21 1 20 2 19 3 18 4 17 5 16 6 15 7 13 8 12 9 11 10 9 11
REMARK SMILES IDX 10 12 8 13 7 14 6 15 5 16 4 17 2 18 1 19 3 20 14 21
REMARK H PARENT 14 22
ROOT
ATOM      1  C   UNL     1      -0.268  -2.445   1.685  1.00  0.00     0.010 C 
ATOM      2  C   UNL     1      -0.728  -1.061   1.195  1.00  0.00     0.014 C 
ATOM      3  C   UNL     1       0.440  -0.306   0.521  1.00  0.00     0.065 C 
ATOM      4  C   UNL     1       0.041   1.182   0.384  1.00  0.00     0.055 C 
ATOM      5  C   UNL     1      -1.391   1.434  -0.030  1.00  0.00    -0.042 A 
ATOM      6  C   UNL     1      -1.766   2.757  -0.326  1.00  0.00     0.008 A 
ATOM      7  C   UNL     1      -3.068   3.061  -0.717  1.00  0.00     0.046 A 
ATOM      8  C   UNL     1      -3.997   2.038  -0.814  1.00  0.00     0.115 A 
ATOM      9  C   UNL     1      -3.648   0.722  -0.518  1.00  0.00     0.050 A 
ATOM     10  C   UNL     1      -2.345   0.394  -0.101  1.00  0.00    -0.035 A 
ATOM     11  C   UNL     1      -1.933  -1.065   0.201  1.00  0.00    -0.002 C 
ATOM     12  C   UNL     1      -3.102  -1.879   0.800  1.00  0.00     0.017 C 
ATOM     13  C   UNL     1      -1.497  -1.720  -1.132  1.00  0.00     0.027 C 
ATOM     14  C   UNL     1      -0.219  -1.103  -1.712  1.00  0.00     0.086 C 
ATOM     15  N   UNL     1       0.857  -1.014  -0.716  1.00  0.00    -0.296 NA
ENDROOT
BRANCH  15  16
ATOM     16  C   UNL     1       2.080  -0.482  -1.333  1.00  0.00     0.112 C 
BRANCH  16  17
ATOM     17  C   UNL     1       3.281  -0.658  -0.446  1.00  0.00    -0.013 C 
ATOM     18  C   UNL     1       4.142   0.278   0.003  1.00  0.00    -0.079 C 
ATOM     19  C   UNL     1       5.293  -0.112   0.895  1.00  0.00     0.039 C 
ATOM     20  C   UNL     1       4.070   1.747  -0.302  1.00  0.00     0.039 C 
ENDBRANCH  16  17
ENDBRANCH  15  16
BRANCH   8  21
ATOM     21  O   UNL     1      -5.281   2.280  -1.206  1.00  0.00    -0.508 OA
ATOM     22  H   UNL     1      -5.379   3.232  -1.369  1.00  0.00     0.293 HD
ENDBRANCH   8  21
TORSDOF 3
