REMARK SMILES CC[N+](C)(CC)CCOC(=O)C(O)(c1cccs1)C1CCCC1
REMARK SMILES IDX 8 1 7 2 3 3 4 4 2 5 1 6 5 7 6 8 9 9 10 10 11 11 12 12 13 13
REMARK SMILES IDX 19 15 20 16 23 17 21 18 22 19 14 20 15 21 18 22 16 23 17 24
REMARK H PARENT 13 14
ROOT
ATOM      1  C   UNL     1       1.720  -1.837   0.667  1.00  0.00     0.294 C 
ENDROOT
BRANCH   1   2
ATOM      2  C   UNL     1       3.014  -1.011   0.765  1.00  0.00     0.305 C 
BRANCH   2   3
ATOM      3  N   UNL     1       3.228   0.080  -0.345  1.00  0.00    -0.324 N 
ATOM      4  C   UNL     1       2.966  -0.530  -1.730  1.00  0.00     0.334 C 
BRANCH   3   5
ATOM      5  C   UNL     1       2.265   1.268  -0.109  1.00  0.00     0.260 C 
ATOM      6  C   UNL     1       2.542   2.472  -0.998  1.00  0.00     0.071 C 
ENDBRANCH   3   5
BRANCH   3   7
ATOM      7  C   UNL     1       4.718   0.511  -0.316  1.00  0.00     0.260 C 
ATOM      8  C   UNL     1       5.144   1.151   0.995  1.00  0.00     0.071 C 
ENDBRANCH   3   7
ENDBRANCH   2   3
ENDBRANCH   1   2
BRANCH   1   9
ATOM      9  O   UNL     1       0.575  -1.029   0.971  1.00  0.00    -0.457 OA
BRANCH   9  10
ATOM     10  C   UNL     1      -0.485  -1.120   0.102  1.00  0.00     0.344 C 
ATOM     11  O   UNL     1      -0.473  -1.832  -0.895  1.00  0.00    -0.248 OA
BRANCH  10  12
ATOM     12  C   UNL     1      -1.646  -0.184   0.541  1.00  0.00     0.199 C 
BRANCH  12  13
ATOM     13  O   UNL     1      -1.034   0.969   1.168  1.00  0.00    -0.373 OA
ATOM     14  H   UNL     1      -0.976   0.763   2.119  1.00  0.00     0.212 HD
ENDBRANCH  12  13
BRANCH  12  15
ATOM     15  C   UNL     1      -2.418   0.349  -0.684  1.00  0.00     0.038 C 
ATOM     16  C   UNL     1      -3.298  -0.633  -1.461  1.00  0.00     0.007 C 
ATOM     17  C   UNL     1      -3.399   1.492  -0.389  1.00  0.00     0.007 C 
ATOM     18  C   UNL     1      -4.076   0.278  -2.402  1.00  0.00     0.000 C 
ATOM     19  C   UNL     1      -4.325   1.557  -1.605  1.00  0.00     0.000 C 
ENDBRANCH  12  15
BRANCH  12  20
ATOM     20  C   UNL     1      -2.486  -0.928   1.570  1.00  0.00     0.048 A 
ATOM     21  C   UNL     1      -2.954  -2.232   1.519  1.00  0.00     0.019 A 
ATOM     22  S   UNL     1      -2.971  -0.177   3.042  1.00  0.00    -0.145 S 
ATOM     23  C   UNL     1      -3.721  -2.593   2.663  1.00  0.00     0.012 A 
ATOM     24  C   UNL     1      -3.812  -1.563   3.568  1.00  0.00     0.065 A 
ENDBRANCH  12  20
ENDBRANCH  10  12
ENDBRANCH   9  10
ENDBRANCH   1   9
TORSDOF 10
