REMARK SMILES OC[C@H]1O[C@@H](n2cnc3c2NC=NC[C@H]3O)C[C@@H]1O
REMARK SMILES IDX 3 1 4 2 5 3 17 4 18 5 2 6 1 7 19 9 6 11 7 12 10 13 8 14 9 15
REMARK SMILES IDX 11 16 12 17 13 18 14 20 15 22 16 24
REMARK H PARENT 1 8 19 10 11 19 16 25
REMARK Flexibility Score:   20.900
ROOT
ATOM      1  C   UNL     1      -3.193   0.226   0.119  1.00  0.00     0.175 C 
ATOM      2  O   UNL     1      -2.067   0.731   0.872  1.00  0.00    -0.350 OA
ATOM      3  C   UNL     1      -0.971   0.940  -0.047  1.00  0.00     0.225 C 
ATOM      4  C   UNL     1      -1.487   0.619  -1.443  1.00  0.00     0.090 C 
ATOM      5  C   UNL     1      -2.612  -0.350  -1.163  1.00  0.00     0.150 C 
ENDROOT
BRANCH   1   6
ATOM      6  C   UNL     1      -3.957  -0.796   0.953  1.00  0.00     0.190 C 
BRANCH   6   7
ATOM      7  O   UNL     1      -4.477  -0.163   2.122  1.00  0.00    -0.394 OA
ATOM      8  H   UNL     1      -3.724   0.288   2.549  1.00  0.00     0.210 HD
ENDBRANCH   6   7
ENDBRANCH   1   6
BRANCH   5   9
ATOM      9  O   UNL     1      -3.535  -0.418  -2.232  1.00  0.00    -0.390 OA
ATOM     10  H   UNL     1      -3.952   0.452  -2.362  1.00  0.00     0.211 HD
ENDBRANCH   5   9
BRANCH   3  11
ATOM     11  N   UNL     1       0.169   0.123   0.346  1.00  0.00    -0.290 N 
ATOM     12  C   UNL     1       0.140  -0.943   1.208  1.00  0.00     0.203 A 
ATOM     13  C   UNL     1       1.474   0.276  -0.064  1.00  0.00     0.139 A 
ATOM     14  N   UNL     1       1.323  -1.496   1.351  1.00  0.00    -0.237 NA
ATOM     15  C   UNL     1       2.164  -0.737   0.568  1.00  0.00     0.113 A 
BRANCH  13  16
ATOM     16  N   UNL     1       1.922   1.224  -0.922  1.00  0.00    -0.331 N 
ATOM     17  C   UNL     1       3.229   1.374  -1.340  1.00  0.00     0.192 C 
ATOM     18  N   UNL     1       4.361   0.975  -0.896  1.00  0.00    -0.272 NA
ATOM     19  H   UNL     1       1.265   1.805  -1.431  1.00  0.00     0.169 HD
BRANCH  18  20
ATOM     20  C   UNL     1       4.446   0.264   0.392  1.00  0.00     0.182 CG0
ATOM     21  G   UNL     1       3.625  -1.031   0.474  1.00  0.00     0.000 G0
ENDBRANCH  18  20
ENDBRANCH  13  16
BRANCH  15  22
ATOM     22  C   UNL     1       3.625  -1.031   0.474  1.00  0.00     0.188 CG0
ATOM     23  G   UNL     1       4.446   0.264   0.392  1.00  0.00     0.000 G0
BRANCH  22  24
ATOM     24  O   UNL     1       4.056  -1.790   1.615  1.00  0.00    -0.385 OA
ATOM     25  H   UNL     1       3.236  -2.204   1.954  1.00  0.00     0.211 HD
ENDBRANCH  22  24
ENDBRANCH  15  22
ENDBRANCH   3  11
TORSDOF 5
