REMARK SMILES O=[P@]1(N(CCCl)CCCl)N[C@H](OO)CCO1
REMARK SMILES IDX 11 1 14 2 15 3 16 4 2 5 1 6 10 7 12 9 13 10 3 12 4 13 5 14
REMARK SMILES IDX 6 15 7 16 8 17 9 18
REMARK H PARENT 10 8 13 11
ROOT
ATOM      1  C   UNL     1       1.844  -0.629   1.588  1.00  0.00     0.235 C 
ATOM      2  C   UNL     1       1.573  -2.111   1.315  1.00  0.00     0.081 C 
ATOM      3  C   UNL     1       1.334  -2.353  -0.174  1.00  0.00     0.175 C 
ATOM      4  O   UNL     1       0.233  -1.576  -0.621  1.00  0.00    -0.306 OA
ATOM      5  P   UNL     1       0.370   0.019  -0.446  1.00  0.00     0.345 P 
ATOM      6  O   UNL     1       1.402   0.597  -1.366  1.00  0.00    -0.256 OA
ATOM      7  N   UNL     1       0.718   0.174   1.137  1.00  0.00    -0.203 NA
ATOM      8  H   UNL     1      -0.093  -0.062   1.697  1.00  0.00     0.136 HD
ENDROOT
BRANCH   1   9
ATOM      9  O   UNL     1       3.086  -0.301   0.945  1.00  0.00    -0.220 OA
BRANCH   9  10
ATOM     10  O   UNL     1       3.198   1.154   0.918  1.00  0.00    -0.250 OA
ATOM     11  H   UNL     1       2.861   1.267   0.004  1.00  0.00     0.255 HD
ENDBRANCH   9  10
ENDBRANCH   1   9
BRANCH   5  12
ATOM     12  N   UNL     1      -1.133   0.673  -0.561  1.00  0.00    -0.217 NA
BRANCH  12  13
ATOM     13  C   UNL     1      -1.188   2.109  -0.917  1.00  0.00     0.111 C 
BRANCH  13  14
ATOM     14  C   UNL     1      -0.384   3.019   0.021  1.00  0.00     0.125 C 
ATOM     15  Cl  UNL     1      -0.645   4.731  -0.409  1.00  0.00    -0.125 Cl
ENDBRANCH  13  14
ENDBRANCH  12  13
BRANCH  12  16
ATOM     16  C   UNL     1      -2.177  -0.057  -1.302  1.00  0.00     0.111 C 
BRANCH  16  17
ATOM     17  C   UNL     1      -2.713  -1.330  -0.623  1.00  0.00     0.125 C 
ATOM     18  Cl  UNL     1      -3.102  -1.069   1.099  1.00  0.00    -0.125 Cl
ENDBRANCH  16  17
ENDBRANCH  12  16
ENDBRANCH   5  12
TORSDOF 7
