REMARK SMILES CCOc1ccc(NC(=O)CN)cc1
REMARK SMILES IDX 4 1 5 2 6 3 7 4 13 5 14 6 3 7 2 8 1 9 8 10 9 11 10 12 11 14
REMARK SMILES IDX 12 15
REMARK H PARENT 8 13 12 16 12 17
ROOT
ATOM      1  C   UNL     1      -1.937   0.407  -0.572  1.00  0.00     0.119 A 
ATOM      2  C   UNL     1      -1.069   1.130  -1.393  1.00  0.00     0.048 A 
ATOM      3  C   UNL     1       0.319   0.989  -1.278  1.00  0.00     0.030 A 
ATOM      4  C   UNL     1       0.859   0.120  -0.332  1.00  0.00     0.041 A 
ATOM      5  C   UNL     1      -0.011  -0.601   0.494  1.00  0.00     0.030 A 
ATOM      6  C   UNL     1      -1.400  -0.458   0.377  1.00  0.00     0.048 A 
ENDROOT
BRANCH   1   7
ATOM      7  O   UNL     1      -3.262   0.650  -0.794  1.00  0.00    -0.494 OA
BRANCH   7   8
ATOM      8  C   UNL     1      -4.233  -0.143  -0.112  1.00  0.00     0.226 C 
ATOM      9  C   UNL     1      -4.608   0.491   1.216  1.00  0.00     0.049 C 
ENDBRANCH   7   8
ENDBRANCH   1   7
BRANCH   4  10
ATOM     10  N   UNL     1       2.235  -0.081  -0.149  1.00  0.00    -0.325 N 
ATOM     11  C   UNL     1       3.291   0.508  -0.819  1.00  0.00     0.238 C 
ATOM     12  O   UNL     1       3.226   1.323  -1.733  1.00  0.00    -0.273 OA
ATOM     13  H   UNL     1       2.536  -0.729   0.577  1.00  0.00     0.169 HD
BRANCH  11  14
ATOM     14  C   UNL     1       4.647  -0.014  -0.319  1.00  0.00     0.179 C 
BRANCH  14  15
ATOM     15  N   UNL     1       4.538  -0.578   1.046  1.00  0.00    -0.322 NA
ATOM     16  H   UNL     1       4.393   0.201   1.694  1.00  0.00     0.119 HD
ATOM     17  H   UNL     1       5.450  -0.963   1.298  1.00  0.00     0.119 HD
ENDBRANCH  14  15
ENDBRANCH  11  14
ENDBRANCH   4  10
TORSDOF 5
