REMARK SMILES CC(Cc1ccccc1)NN
REMARK SMILES IDX 1 1 2 2 3 3 4 4 5 5 9 6 6 7 8 8 7 9 10 10 11 12
REMARK H PARENT 10 11 11 13 11 14
ROOT
ATOM      1  C   UNL     1       2.689  -1.442   0.339  1.00  0.00     0.026 C 
ATOM      2  C   UNL     1       1.434  -0.782  -0.244  1.00  0.00     0.070 C 
ENDROOT
BRANCH   2   3
ATOM      3  C   UNL     1       0.394  -0.496   0.866  1.00  0.00     0.055 C 
BRANCH   3   4
ATOM      4  C   UNL     1      -0.959  -0.075   0.335  1.00  0.00    -0.046 A 
ATOM      5  C   UNL     1      -1.856  -1.026  -0.168  1.00  0.00     0.004 A 
ATOM      6  C   UNL     1      -1.323   1.278   0.320  1.00  0.00     0.004 A 
ATOM      7  C   UNL     1      -3.096  -0.631  -0.672  1.00  0.00     0.000 A 
ATOM      8  C   UNL     1      -2.563   1.672  -0.185  1.00  0.00     0.000 A 
ATOM      9  C   UNL     1      -3.450   0.717  -0.680  1.00  0.00     0.000 A 
ENDBRANCH   3   4
ENDBRANCH   2   3
BRANCH   2  10
ATOM     10  N   UNL     1       1.766   0.392  -1.089  1.00  0.00    -0.257 NA
ATOM     11  H   UNL     1       0.880   0.732  -1.486  1.00  0.00     0.141 HD
BRANCH  10  12
ATOM     12  N   UNL     1       2.412   1.435  -0.316  1.00  0.00    -0.271 NA
ATOM     13  H   UNL     1       3.367   1.157  -0.068  1.00  0.00     0.137 HD
ATOM     14  H   UNL     1       2.540   2.274  -0.891  1.00  0.00     0.137 HD
ENDBRANCH  10  12
ENDBRANCH   2  10
TORSDOF 4
