REMARK SMILES O=C(O)C(Cc1cc(I)c(O)c(I)c1)c1ccccc1
REMARK SMILES IDX 4 1 2 2 1 3 3 4 5 6 6 7 7 8 14 9 8 10 12 11 10 12 9 13 13 14
REMARK SMILES IDX 11 15 15 17 16 18 20 19 17 20 19 21 18 22
REMARK H PARENT 3 5 11 16
ROOT
ATOM      1  C   UNL     1       0.663  -0.012  -0.573  1.00  0.00     0.133 C 
ENDROOT
BRANCH   1   2
ATOM      2  C   UNL     1       0.308   0.743  -1.842  1.00  0.00     0.311 C 
ATOM      3  O   UNL     1      -0.040   1.911  -1.929  1.00  0.00    -0.252 OA
BRANCH   2   4
ATOM      4  O   UNL     1       0.433  -0.013  -2.952  1.00  0.00    -0.481 OA
ATOM      5  H   UNL     1       0.213   0.598  -3.687  1.00  0.00     0.296 HD
ENDBRANCH   2   4
ENDBRANCH   1   2
BRANCH   1   6
ATOM      6  C   UNL     1      -0.260   0.410   0.588  1.00  0.00     0.055 C 
BRANCH   6   7
ATOM      7  C   UNL     1      -1.680  -0.086   0.423  1.00  0.00    -0.044 A 
ATOM      8  C   UNL     1      -2.671   0.753  -0.106  1.00  0.00     0.022 A 
ATOM      9  C   UNL     1      -2.017  -1.400   0.778  1.00  0.00     0.022 A 
ATOM     10  C   UNL     1      -3.977   0.284  -0.274  1.00  0.00     0.056 A 
ATOM     11  C   UNL     1      -3.325  -1.868   0.610  1.00  0.00     0.056 A 
ATOM     12  C   UNL     1      -4.310  -1.028   0.084  1.00  0.00     0.142 A 
ATOM     13  I   UNL     1      -5.404   1.588  -1.072  1.00  0.00    -0.040 I 
ATOM     14  I   UNL     1      -3.737  -3.844   1.167  1.00  0.00    -0.040 I 
BRANCH  12  15
ATOM     15  O   UNL     1      -5.586  -1.501  -0.076  1.00  0.00    -0.506 OA
ATOM     16  H   UNL     1      -6.128  -0.781  -0.444  1.00  0.00     0.293 HD
ENDBRANCH  12  15
ENDBRANCH   6   7
ENDBRANCH   1   6
BRANCH   1  17
ATOM     17  C   UNL     1       2.129   0.183  -0.214  1.00  0.00    -0.033 A 
ATOM     18  C   UNL     1       2.648   1.454   0.081  1.00  0.00     0.004 A 
ATOM     19  C   UNL     1       2.992  -0.922  -0.174  1.00  0.00     0.004 A 
ATOM     20  C   UNL     1       3.995   1.612   0.413  1.00  0.00     0.000 A 
ATOM     21  C   UNL     1       4.338  -0.761   0.158  1.00  0.00     0.000 A 
ATOM     22  C   UNL     1       4.839   0.505   0.452  1.00  0.00     0.000 A 
ENDBRANCH   1  17
TORSDOF 6
