REMARK SMILES O=C(O)Cc1ccccc1
REMARK SMILES IDX 2 1 1 2 3 3 4 5 5 6 6 7 10 8 7 9 9 10 8 11
REMARK H PARENT 3 4
ROOT
ATOM      1  C   UNL     1       2.360   0.312   0.565  1.00  0.00     0.307 C 
ATOM      2  O   UNL     1       2.018   1.305   1.183  1.00  0.00    -0.252 OA
ENDROOT
BRANCH   1   3
ATOM      3  O   UNL     1       3.665  -0.037   0.526  1.00  0.00    -0.481 OA
ATOM      4  H   UNL     1       4.104   0.658   1.061  1.00  0.00     0.296 HD
ENDBRANCH   1   3
BRANCH   1   5
ATOM      5  C   UNL     1       1.503  -0.654  -0.215  1.00  0.00     0.158 C 
BRANCH   5   6
ATOM      6  C   UNL     1       0.031  -0.316  -0.208  1.00  0.00    -0.037 A 
ATOM      7  C   UNL     1      -0.510   0.524  -1.192  1.00  0.00     0.004 A 
ATOM      8  C   UNL     1      -0.809  -0.817   0.796  1.00  0.00     0.004 A 
ATOM      9  C   UNL     1      -1.869   0.844  -1.178  1.00  0.00     0.000 A 
ATOM     10  C   UNL     1      -2.167  -0.495   0.807  1.00  0.00     0.000 A 
ATOM     11  C   UNL     1      -2.697   0.333  -0.181  1.00  0.00     0.000 A 
ENDBRANCH   5   6
ENDBRANCH   1   5
TORSDOF 3
