REMARK SMILES C[N+](C)(C)CCOP(=O)([O-])O
REMARK SMILES IDX 6 1 5 2 2 3 1 4 3 5 4 6 7 7 8 8 9 9 10 10 11 11
REMARK H PARENT 11 12
ROOT
ATOM      1  C   UNL     1       0.911  -1.250  -0.243  1.00  0.00     0.231 C 
ENDROOT
BRANCH   1   2
ATOM      2  C   UNL     1      -0.216  -0.467  -0.934  1.00  0.00     0.292 C 
BRANCH   2   3
ATOM      3  N   UNL     1      -1.256   0.166   0.026  1.00  0.00    -0.329 N 
ATOM      4  C   UNL     1      -0.600   1.330   0.782  1.00  0.00     0.334 C 
ATOM      5  C   UNL     1      -1.805  -0.847   1.001  1.00  0.00     0.334 C 
ATOM      6  C   UNL     1      -2.380   0.737  -0.821  1.00  0.00     0.334 C 
ENDBRANCH   2   3
ENDBRANCH   1   2
BRANCH   1   7
ATOM      7  O   UNL     1       2.106  -1.126  -0.993  1.00  0.00    -0.313 OA
BRANCH   7   8
ATOM      8  P   UNL     1       2.943   0.236  -0.729  1.00  0.00     0.265 P 
ATOM      9  O   UNL     1       4.036   0.337  -1.742  1.00  0.00    -0.277 OA
ATOM     10  O   UNL     1       1.994   1.355  -0.408  1.00  0.00    -0.756 OA
BRANCH   8  11
ATOM     11  O   UNL     1       3.689  -0.203   0.624  1.00  0.00    -0.334 OA
ATOM     12  H   UNL     1       4.608  -0.344   0.326  1.00  0.00     0.220 HD
ENDBRANCH   8  11
ENDBRANCH   7   8
ENDBRANCH   1   7
TORSDOF 5
