REMARK SMILES COc1ccc(C(=O)NCc2cccnc2)cc1C(=O)NCc1cccnc1
REMARK SMILES IDX 3 1 18 2 17 3 6 4 5 5 4 6 2 7 1 8 19 9 20 10 21 11 22 13
REMARK SMILES IDX 23 14 28 15 24 16 27 17 25 18 26 19 7 20 8 21 9 22 10 24
REMARK SMILES IDX 11 25 16 26 12 27 15 28 13 29 14 30
REMARK H PARENT 21 12 9 23
ROOT
ATOM      1  C   UNL     1       0.954   1.369   0.621  1.00  0.00     0.131 A 
ATOM      2  C   UNL     1       0.599   0.007   0.502  1.00  0.00     0.082 A 
ATOM      3  C   UNL     1      -0.734  -0.389   0.738  1.00  0.00     0.031 A 
ATOM      4  C   UNL     1      -1.713   0.549   1.074  1.00  0.00     0.040 A 
ATOM      5  C   UNL     1      -1.352   1.892   1.203  1.00  0.00     0.018 A 
ATOM      6  C   UNL     1      -0.034   2.299   0.976  1.00  0.00     0.048 A 
ENDROOT
BRANCH   1   7
ATOM      7  O   UNL     1       2.257   1.716   0.373  1.00  0.00    -0.496 OA
ATOM      8  C   UNL     1       2.645   3.069   0.592  1.00  0.00     0.278 C 
ENDBRANCH   1   7
BRANCH   2   9
ATOM      9  C   UNL     1       1.548  -1.098   0.137  1.00  0.00     0.255 C 
ATOM     10  O   UNL     1       1.126  -2.236  -0.049  1.00  0.00    -0.269 OA
ATOM     11  N   UNL     1       2.879  -0.788   0.022  1.00  0.00    -0.348 N 
ATOM     12  H   UNL     1       3.157   0.186   0.104  1.00  0.00     0.164 HD
BRANCH  11  13
ATOM     13  C   UNL     1       3.855  -1.768  -0.385  1.00  0.00     0.153 C 
BRANCH  13  14
ATOM     14  C   UNL     1       5.236  -1.189  -0.375  1.00  0.00    -0.010 A 
ATOM     15  C   UNL     1       6.016  -1.219   0.776  1.00  0.00     0.116 A 
ATOM     16  C   UNL     1       5.772  -0.555  -1.500  1.00  0.00     0.009 A 
ATOM     17  N   UNL     1       7.258  -0.690   0.865  1.00  0.00    -0.264 NA
ATOM     18  C   UNL     1       7.049  -0.005  -1.439  1.00  0.00     0.020 A 
ATOM     19  C   UNL     1       7.747  -0.099  -0.246  1.00  0.00     0.111 A 
ENDBRANCH  13  14
ENDBRANCH  11  13
ENDBRANCH   2   9
BRANCH   4  20
ATOM     20  C   UNL     1      -3.130   0.167   1.328  1.00  0.00     0.251 C 
ATOM     21  O   UNL     1      -3.838   0.885   2.027  1.00  0.00    -0.269 OA
ATOM     22  N   UNL     1      -3.579  -0.983   0.717  1.00  0.00    -0.348 N 
ATOM     23  H   UNL     1      -3.019  -1.413  -0.006  1.00  0.00     0.164 HD
BRANCH  22  24
ATOM     24  C   UNL     1      -4.963  -1.396   0.805  1.00  0.00     0.153 C 
BRANCH  24  25
ATOM     25  C   UNL     1      -5.738  -0.960  -0.404  1.00  0.00    -0.010 A 
ATOM     26  C   UNL     1      -6.024  -1.845  -1.438  1.00  0.00     0.116 A 
ATOM     27  C   UNL     1      -6.181   0.358  -0.547  1.00  0.00     0.009 A 
ATOM     28  N   UNL     1      -6.703  -1.511  -2.559  1.00  0.00    -0.264 NA
ATOM     29  C   UNL     1      -6.884   0.731  -1.689  1.00  0.00     0.020 A 
ATOM     30  C   UNL     1      -7.119  -0.230  -2.657  1.00  0.00     0.111 A 
ENDBRANCH  24  25
ENDBRANCH  22  24
ENDBRANCH   4  20
TORSDOF 7
