REMARK SMILES CC[C@@H]1C(=O)OC[C@@H]1Cc1cncn1C
REMARK SMILES IDX 3 1 8 2 7 3 6 4 4 5 5 6 2 7 1 8 9 9 10 10 11 11 14 12 12 13
REMARK SMILES IDX 13 14 15 15
REMARK H PARENT
ROOT
ATOM      1  C   UNL     1      -1.245  -0.232   1.069  1.00  0.00     0.106 C 
ATOM      2  C   UNL     1      -0.332   0.779   0.378  1.00  0.00     0.047 C 
ATOM      3  C   UNL     1      -1.235   1.983   0.213  1.00  0.00     0.237 C 
ATOM      4  O   UNL     1      -2.100   1.954   1.348  1.00  0.00    -0.465 OA
ATOM      5  C   UNL     1      -2.149   0.686   1.856  1.00  0.00     0.309 C 
ATOM      6  O   UNL     1      -2.857   0.356   2.793  1.00  0.00    -0.252 OA
ENDROOT
BRANCH   1   7
ATOM      7  C   UNL     1      -2.071  -1.217   0.232  1.00  0.00     0.012 C 
ATOM      8  C   UNL     1      -3.074  -0.617  -0.746  1.00  0.00     0.005 C 
ENDBRANCH   1   7
BRANCH   2   9
ATOM      9  C   UNL     1       0.380   0.372  -0.911  1.00  0.00     0.063 C 
BRANCH   9  10
ATOM     10  C   UNL     1       1.498  -0.585  -0.662  1.00  0.00     0.037 A 
ATOM     11  C   UNL     1       1.545  -1.963  -0.752  1.00  0.00     0.134 A 
ATOM     12  N   UNL     1       2.779  -0.230  -0.300  1.00  0.00    -0.338 N 
ATOM     13  N   UNL     1       2.787  -2.440  -0.433  1.00  0.00    -0.245 NA
ATOM     14  C   UNL     1       3.508  -1.377  -0.166  1.00  0.00     0.199 A 
ATOM     15  C   UNL     1       3.296   1.102  -0.106  1.00  0.00     0.151 C 
ENDBRANCH   9  10
ENDBRANCH   2   9
TORSDOF 3
