REMARK SMILES CC[C@@H]1/C=C(\C)C[C@H](C)C[C@H](OC)[C@H]2O[C@@](O)(C(=O)C(=O)N3CCCC[C@H]3C(=O)O[C@H](/C(C)=C/[C@@H]3CC[C@H](Cl)[C@H](OC)C3)[C@H](C)[C@@H](O)CC1=O)[C@H](C)C[C@@H]2OC
REMARK SMILES IDX 28 1 29 2 30 3 31 4 44 5 45 6 46 7 48 8 49 9 50 10 3 11 2 12
REMARK SMILES IDX 1 13 4 14 5 15 6 16 47 18 32 20 34 21 33 22 35 23 36 24
REMARK SMILES IDX 43 25 37 26 40 27 38 28 39 29 41 30 42 31 27 32 26 33 22 34
REMARK SMILES IDX 25 35 23 36 24 37 20 38 21 39 18 40 19 41 16 42 15 43 51 44
REMARK SMILES IDX 14 45 53 46 54 47 52 48 17 49 11 51 10 52 8 53 9 54 7 55
REMARK SMILES IDX 12 57 13 58 55 59 56 60
REMARK H PARENT 47 19 17 50
REMARK Flexibility Score:  163.900
ROOT
ATOM      1  C   UNL     1       1.559  -2.165  -0.193  1.00  0.00     0.329 C 
ATOM      2  O   UNL     1       1.520  -1.814  -1.366  1.00  0.00    -0.250 OA
ENDROOT
BRANCH   1   3
ATOM      3  O   UNL     1       2.144  -1.467   0.820  1.00  0.00    -0.456 OA
BRANCH   3   4
ATOM      4  C   UNL     1       2.626  -0.139   0.517  1.00  0.00     0.207 C 
BRANCH   4   5
ATOM      5  C   UNL     1       2.262   0.741   1.754  1.00  0.00     0.060 C 
ATOM      6  C   UNL     1       2.929   0.204   3.036  1.00  0.00     0.015 C 
BRANCH   5   7
ATOM      7  C   UNL     1       0.723   0.847   1.955  1.00  0.00     0.128 C 
BRANCH   7   8
ATOM      8  C   UNL     1      -0.044   1.531   0.813  1.00  0.00     0.108 C 
BRANCH   8   9
ATOM      9  C   UNL     1       0.327   2.999   0.633  1.00  0.00     0.142 C 
ATOM     10  O   UNL     1       0.960   3.599   1.505  1.00  0.00    -0.299 OA
BRANCH   9  11
ATOM     11  C   UNL     1      -0.147   3.681  -0.661  1.00  0.00     0.078 C 
BRANCH  11  12
ATOM     12  C   UNL     1       0.442   5.101  -0.825  1.00  0.00     0.012 C 
ATOM     13  C   UNL     1      -0.189   6.178   0.055  1.00  0.00     0.005 C 
ENDBRANCH  11  12
BRANCH  11  14
ATOM     14  C   UNL     1      -1.654   3.682  -0.705  1.00  0.00    -0.017 C 
ATOM     15  C   UNL     1      -2.457   3.474  -1.767  1.00  0.00    -0.076 CG0
ATOM     16  C   UNL     1      -1.969   3.244  -3.171  1.00  0.00     0.039 C 
ATOM     17  G   UNL     1      -3.967   3.531  -1.579  1.00  0.00     0.000 G0
ENDBRANCH  11  14
ENDBRANCH   9  11
ENDBRANCH   8   9
ENDBRANCH   7   8
BRANCH   7  18
ATOM     18  O   UNL     1       0.423   1.535   3.177  1.00  0.00    -0.392 OA
ATOM     19  H   UNL     1       0.785   2.438   3.079  1.00  0.00     0.210 HD
ENDBRANCH   7  18
ENDBRANCH   5   7
ENDBRANCH   4   5
BRANCH   4  20
ATOM     20  C   UNL     1       4.122  -0.163   0.130  1.00  0.00    -0.036 C 
ATOM     21  C   UNL     1       4.831   0.986   0.069  1.00  0.00    -0.021 C 
ATOM     22  C   UNL     1       4.696  -1.503  -0.254  1.00  0.00     0.043 C 
BRANCH  21  23
ATOM     23  C   UNL     1       6.260   1.249  -0.367  1.00  0.00     0.014 C 
ATOM     24  C   UNL     1       6.529   0.994  -1.866  1.00  0.00     0.009 C 
ATOM     25  C   UNL     1       7.337   0.680   0.567  1.00  0.00     0.041 C 
ATOM     26  C   UNL     1       7.625  -0.029  -2.153  1.00  0.00     0.023 C 
ATOM     27  C   UNL     1       8.712   0.973  -0.037  1.00  0.00     0.136 C 
ATOM     28  C   UNL     1       8.918   0.165  -1.338  1.00  0.00     0.110 C 
ATOM     29  Cl  UNL     1       9.628  -1.463  -1.039  1.00  0.00    -0.120 Cl
BRANCH  27  30
ATOM     30  O   UNL     1       9.706   0.762   0.972  1.00  0.00    -0.380 OA
ATOM     31  C   UNL     1      10.980   1.307   0.643  1.00  0.00     0.195 C 
ENDBRANCH  27  30
ENDBRANCH  21  23
ENDBRANCH   4  20
ENDBRANCH   3   4
ENDBRANCH   1   3
BRANCH   1  32
ATOM     32  C   UNL     1       1.010  -3.495   0.345  1.00  0.00     0.195 C 
ATOM     33  C   UNL     1       0.671  -4.492  -0.771  1.00  0.00     0.037 C 
ATOM     34  N   UNL     1      -0.123  -3.428   1.296  1.00  0.00    -0.322 N 
ATOM     35  C   UNL     1       0.342  -5.865  -0.167  1.00  0.00     0.005 C 
ATOM     36  C   UNL     1      -0.369  -4.708   1.966  1.00  0.00     0.121 C 
ATOM     37  C   UNL     1      -0.728  -5.773   0.926  1.00  0.00     0.022 C 
BRANCH  34  38
ATOM     38  C   UNL     1      -1.168  -2.538   0.982  1.00  0.00     0.296 C 
ATOM     39  O   UNL     1      -1.035  -1.615   0.177  1.00  0.00    -0.265 OA
BRANCH  38  40
ATOM     40  C   UNL     1      -2.561  -2.709   1.589  1.00  0.00     0.279 C 
ATOM     41  O   UNL     1      -2.710  -3.037   2.761  1.00  0.00    -0.282 OA
BRANCH  40  42
ATOM     42  C   UNL     1      -3.718  -2.356   0.616  1.00  0.00     0.239 C 
ATOM     43  O   UNL     1      -4.060  -1.000   0.903  1.00  0.00    -0.334 OA
ATOM     44  C   UNL     1      -4.957  -3.234   0.893  1.00  0.00     0.057 C 
ATOM     45  C   UNL     1      -5.086  -0.441   0.063  1.00  0.00     0.180 C 
ATOM     46  C   UNL     1      -6.137  -2.747   0.035  1.00  0.00     0.044 C 
ATOM     47  C   UNL     1      -6.401  -1.245   0.226  1.00  0.00     0.150 C 
ATOM     48  C   UNL     1      -4.709  -4.723   0.633  1.00  0.00     0.014 C 
BRANCH  42  49
ATOM     49  O   UNL     1      -3.360  -2.488  -0.753  1.00  0.00    -0.359 OA
ATOM     50  H   UNL     1      -2.668  -1.807  -0.888  1.00  0.00     0.214 HD
ENDBRANCH  42  49
BRANCH  45  51
ATOM     51  C   UNL     1      -5.285   1.067   0.423  1.00  0.00     0.149 C 
BRANCH  51  52
ATOM     52  C   UNL     1      -5.778   1.909  -0.779  1.00  0.00     0.038 C 
BRANCH  52  53
ATOM     53  C   UNL     1      -4.692   2.190  -1.853  1.00  0.00    -0.008 C 
ATOM     54  C   UNL     1      -5.345   2.218  -3.242  1.00  0.00     0.008 C 
BRANCH  53  55
ATOM     55  C   UNL     1      -3.967   3.531  -1.579  1.00  0.00     0.033 CG0
ATOM     56  G   UNL     1      -2.457   3.474  -1.767  1.00  0.00     0.000 G0
ENDBRANCH  53  55
ENDBRANCH  52  53
ENDBRANCH  51  52
BRANCH  51  57
ATOM     57  O   UNL     1      -4.059   1.669   0.886  1.00  0.00    -0.379 OA
ATOM     58  C   UNL     1      -3.933   1.660   2.302  1.00  0.00     0.195 C 
ENDBRANCH  51  57
ENDBRANCH  45  51
BRANCH  47  59
ATOM     59  O   UNL     1      -7.370  -0.772  -0.710  1.00  0.00    -0.379 OA
ATOM     60  C   UNL     1      -8.685  -1.265  -0.493  1.00  0.00     0.195 C 
ENDBRANCH  47  59
ENDBRANCH  40  42
ENDBRANCH  38  40
ENDBRANCH  34  38
ENDBRANCH   1  32
TORSDOF 8
