REMARK SMILES CCOC(=O)C1(c2ccccc2)CCN(CCCNc2ccccc2)CC1
REMARK SMILES IDX 6 1 13 2 14 3 15 4 26 5 27 6 4 7 5 8 3 9 2 10 1 11 7 12 8 13
REMARK SMILES IDX 12 14 9 15 11 16 10 17 16 18 17 19 18 20 19 21 20 23 21 24
REMARK SMILES IDX 25 25 22 26 24 27 23 28
REMARK H PARENT 19 22
ROOT
ATOM      1  C   UNL     1      -2.100  -0.353   0.737  1.00  0.00     0.095 C 
ATOM      2  C   UNL     1      -0.694  -0.051   1.307  1.00  0.00     0.039 C 
ATOM      3  C   UNL     1       0.423  -0.317   0.289  1.00  0.00     0.086 C 
ATOM      4  N   UNL     1       0.198  -1.496  -0.568  1.00  0.00    -0.303 NA
ATOM      5  C   UNL     1      -0.717  -2.445   0.065  1.00  0.00     0.086 C 
ATOM      6  C   UNL     1      -2.113  -1.835   0.250  1.00  0.00     0.039 C 
ENDROOT
BRANCH   1   7
ATOM      7  C   UNL     1      -3.125  -0.282   1.889  1.00  0.00     0.316 C 
ATOM      8  O   UNL     1      -2.864   0.025   3.046  1.00  0.00    -0.251 OA
BRANCH   7   9
ATOM      9  O   UNL     1      -4.379  -0.597   1.444  1.00  0.00    -0.465 OA
BRANCH   9  10
ATOM     10  C   UNL     1      -5.397  -0.530   2.450  1.00  0.00     0.229 C 
ATOM     11  C   UNL     1      -6.719  -0.902   1.808  1.00  0.00     0.049 C 
ENDBRANCH   9  10
ENDBRANCH   7   9
ENDBRANCH   1   7
BRANCH   1  12
ATOM     12  C   UNL     1      -2.430   0.716  -0.332  1.00  0.00    -0.031 A 
ATOM     13  C   UNL     1      -2.831   2.008   0.066  1.00  0.00     0.005 A 
ATOM     14  C   UNL     1      -2.293   0.478  -1.710  1.00  0.00     0.005 A 
ATOM     15  C   UNL     1      -3.114   3.003  -0.873  1.00  0.00     0.000 A 
ATOM     16  C   UNL     1      -2.574   1.475  -2.650  1.00  0.00     0.000 A 
ATOM     17  C   UNL     1      -2.989   2.734  -2.232  1.00  0.00     0.000 A 
ENDBRANCH   1  12
BRANCH   4  18
ATOM     18  C   UNL     1       1.456  -2.153  -0.965  1.00  0.00     0.086 C 
BRANCH  18  19
ATOM     19  C   UNL     1       2.234  -1.446  -2.087  1.00  0.00     0.037 C 
BRANCH  19  20
ATOM     20  C   UNL     1       3.072  -0.236  -1.679  1.00  0.00     0.114 C 
BRANCH  20  21
ATOM     21  N   UNL     1       4.087  -0.619  -0.701  1.00  0.00    -0.385 N 
ATOM     22  H   UNL     1       4.592  -1.462  -0.965  1.00  0.00     0.160 HD
BRANCH  21  23
ATOM     23  C   UNL     1       4.969   0.350  -0.205  1.00  0.00     0.034 A 
ATOM     24  C   UNL     1       6.103  -0.084   0.499  1.00  0.00     0.025 A 
ATOM     25  C   UNL     1       4.723   1.727  -0.248  1.00  0.00     0.025 A 
ATOM     26  C   UNL     1       6.995   0.823   1.078  1.00  0.00     0.002 A 
ATOM     27  C   UNL     1       5.613   2.641   0.328  1.00  0.00     0.002 A 
ATOM     28  C   UNL     1       6.753   2.189   0.986  1.00  0.00     0.000 A 
ENDBRANCH  21  23
ENDBRANCH  20  21
ENDBRANCH  19  20
ENDBRANCH  18  19
ENDBRANCH   4  18
TORSDOF 9
