REMARK SMILES CC(NC(=NC#N)Nc1ccncc1)C(C)(C)C
REMARK SMILES IDX 1 1 2 2 3 3 4 4 8 5 5 6 6 7 7 8 9 11 10 12 14 13 11 14 13 15
REMARK SMILES IDX 12 16 15 17 16 18 17 19 18 20
REMARK H PARENT 3 9 8 10
ROOT
ATOM      1  C   UNL     1      -2.474   0.198   1.942  1.00  0.00     0.031 C 
ATOM      2  C   UNL     1      -1.856  -0.560   0.764  1.00  0.00     0.084 C 
ENDROOT
BRANCH   2   3
ATOM      3  N   UNL     1      -0.426  -0.812   0.967  1.00  0.00    -0.352 N 
ATOM      4  C   UNL     1       0.542   0.092   1.332  1.00  0.00     0.211 C 
ATOM      5  N   UNL     1       1.760  -0.546   1.376  1.00  0.00    -0.325 N 
ATOM      6  N   UNL     1       0.290   1.327   1.627  1.00  0.00    -0.138 NA
ATOM      7  C   UNL     1       1.299   2.096   2.048  1.00  0.00     0.209 C 
ATOM      8  N   UNL     1       2.160   2.784   2.410  1.00  0.00    -0.170 NA
ATOM      9  H   UNL     1      -0.081  -1.576   0.397  1.00  0.00     0.163 HD
ATOM     10  H   UNL     1       1.697  -1.494   1.731  1.00  0.00     0.170 HD
BRANCH   5  11
ATOM     11  C   UNL     1       2.732  -0.463   0.348  1.00  0.00     0.044 A 
ATOM     12  C   UNL     1       3.868  -1.275   0.428  1.00  0.00     0.046 A 
ATOM     13  C   UNL     1       2.667   0.465  -0.692  1.00  0.00     0.046 A 
ATOM     14  C   UNL     1       4.842  -1.167  -0.552  1.00  0.00     0.113 A 
ATOM     15  C   UNL     1       3.692   0.500  -1.625  1.00  0.00     0.113 A 
ATOM     16  N   UNL     1       4.771  -0.308  -1.587  1.00  0.00    -0.265 NA
ENDBRANCH   5  11
ENDBRANCH   2   3
BRANCH   2  17
ATOM     17  C   UNL     1      -2.192   0.000  -0.661  1.00  0.00    -0.018 C 
ATOM     18  C   UNL     1      -1.668   1.426  -0.904  1.00  0.00     0.013 C 
ATOM     19  C   UNL     1      -3.725   0.024  -0.858  1.00  0.00     0.013 C 
ATOM     20  C   UNL     1      -1.601  -0.922  -1.751  1.00  0.00     0.013 C 
ENDBRANCH   2  17
TORSDOF 3
