REMARK SMILES CC(C)NCC(O)COc1cccc2[nH]ccc12
REMARK SMILES IDX 6 1 5 2 4 3 2 5 1 6 3 7 7 8 8 10 9 11 10 12 11 13 18 14
REMARK SMILES IDX 12 15 14 16 17 17 13 18 15 19 16 20
REMARK H PARENT 4 4 7 9 15 21
ROOT
ATOM      1  C   UNL     1       0.910   0.846  -1.516  1.00  0.00     0.165 C 
ENDROOT
BRANCH   1   2
ATOM      2  C   UNL     1       2.304   0.706  -0.872  1.00  0.00     0.116 C 
BRANCH   2   3
ATOM      3  N   UNL     1       2.532  -0.601  -0.240  1.00  0.00    -0.312 NA
ATOM      4  H   UNL     1       1.837  -0.748   0.491  1.00  0.00     0.123 HD
BRANCH   3   5
ATOM      5  C   UNL     1       3.869  -0.715   0.363  1.00  0.00     0.047 C 
ATOM      6  C   UNL     1       3.894  -1.975   1.233  1.00  0.00     0.024 C 
ATOM      7  C   UNL     1       4.977  -0.803  -0.689  1.00  0.00     0.024 C 
ENDBRANCH   3   5
ENDBRANCH   2   3
ENDBRANCH   1   2
BRANCH   1   8
ATOM      8  O   UNL     1       0.853   2.109  -2.203  1.00  0.00    -0.388 OA
ATOM      9  H   UNL     1      -0.065   2.184  -2.527  1.00  0.00     0.211 HD
ENDBRANCH   1   8
BRANCH   1  10
ATOM     10  C   UNL     1      -0.231   0.795  -0.494  1.00  0.00     0.262 C 
BRANCH  10  11
ATOM     11  O   UNL     1      -1.468   0.950  -1.216  1.00  0.00    -0.490 OA
BRANCH  11  12
ATOM     12  C   UNL     1      -2.519   1.000  -0.324  1.00  0.00     0.128 A 
ATOM     13  C   UNL     1      -3.057   2.254  -0.016  1.00  0.00     0.047 A 
ATOM     14  C   UNL     1      -3.099  -0.167   0.216  1.00  0.00     0.041 A 
ATOM     15  C   UNL     1      -4.132   2.360   0.864  1.00  0.00     0.006 A 
ATOM     16  C   UNL     1      -4.176  -0.025   1.094  1.00  0.00     0.049 A 
ATOM     17  C   UNL     1      -2.855  -1.563   0.082  1.00  0.00     0.032 A 
ATOM     18  C   UNL     1      -4.708   1.223   1.441  1.00  0.00     0.027 A 
ATOM     19  N   UNL     1      -4.551  -1.291   1.484  1.00  0.00    -0.361 N 
ATOM     20  C   UNL     1      -3.761  -2.229   0.876  1.00  0.00     0.083 A 
ATOM     21  H   UNL     1      -5.310  -1.493   2.120  1.00  0.00     0.166 HD
ENDBRANCH  11  12
ENDBRANCH  10  11
ENDBRANCH   1  10
TORSDOF 7
