REMARK SMILES O=C(OCCOCCN1CCCCC1)N1c2ccccc2Sc2cccnc21
REMARK SMILES IDX 5 1 4 2 3 3 2 4 1 5 15 6 16 7 28 8 21 9 17 10 27 11 23 12
REMARK SMILES IDX 22 13 20 14 18 15 26 16 24 17 19 18 25 19 6 20 7 21 8 22
REMARK SMILES IDX 9 23 10 24 14 25 11 26 13 27 12 28
REMARK H PARENT
ROOT
ATOM      1  C   UNL     1       0.833   1.443  -0.582  1.00  0.00     0.202 C 
ENDROOT
BRANCH   1   2
ATOM      2  C   UNL     1      -0.123   2.017   0.463  1.00  0.00     0.263 C 
BRANCH   2   3
ATOM      3  O   UNL     1      -1.465   1.591   0.167  1.00  0.00    -0.446 OA
BRANCH   3   4
ATOM      4  C   UNL     1      -2.094   0.789   1.085  1.00  0.00     0.420 C 
ATOM      5  O   UNL     1      -1.580   0.543   2.172  1.00  0.00    -0.223 OA
BRANCH   4   6
ATOM      6  N   UNL     1      -3.314   0.298   0.594  1.00  0.00    -0.227 N 
ATOM      7  C   UNL     1      -4.190   1.117  -0.215  1.00  0.00     0.068 A 
ATOM      8  C   UNL     1      -3.707  -1.036   0.959  1.00  0.00     0.156 A 
ATOM      9  C   UNL     1      -5.242   0.600  -0.987  1.00  0.00     0.037 A 
ATOM     10  C   UNL     1      -4.053   2.525  -0.194  1.00  0.00     0.028 A 
ATOM     11  N   UNL     1      -3.004  -1.654   1.948  1.00  0.00    -0.237 NA
ATOM     12  C   UNL     1      -4.739  -1.726   0.315  1.00  0.00     0.056 A 
ATOM     13  S   UNL     1      -5.623  -1.122  -1.090  1.00  0.00    -0.084 SA
ATOM     14  C   UNL     1      -6.066   1.455  -1.747  1.00  0.00     0.017 A 
ATOM     15  C   UNL     1      -4.877   3.371  -0.945  1.00  0.00     0.002 A 
ATOM     16  C   UNL     1      -3.332  -2.904   2.338  1.00  0.00     0.113 A 
ATOM     17  C   UNL     1      -5.059  -3.029   0.739  1.00  0.00     0.021 A 
ATOM     18  C   UNL     1      -5.881   2.834  -1.733  1.00  0.00     0.001 A 
ATOM     19  C   UNL     1      -4.353  -3.628   1.771  1.00  0.00     0.021 A 
ENDBRANCH   4   6
ENDBRANCH   3   4
ENDBRANCH   2   3
ENDBRANCH   1   2
BRANCH   1  20
ATOM     20  O   UNL     1       0.892   0.017  -0.608  1.00  0.00    -0.377 OA
BRANCH  20  21
ATOM     21  C   UNL     1       1.380  -0.627   0.570  1.00  0.00     0.176 C 
BRANCH  21  22
ATOM     22  C   UNL     1       2.767  -0.162   1.069  1.00  0.00     0.113 C 
BRANCH  22  23
ATOM     23  N   UNL     1       3.828  -0.132   0.050  1.00  0.00    -0.301 NA
ATOM     24  C   UNL     1       4.137  -1.451  -0.520  1.00  0.00     0.084 C 
ATOM     25  C   UNL     1       5.003   0.608   0.518  1.00  0.00     0.084 C 
ATOM     26  C   UNL     1       5.596  -1.885  -0.362  1.00  0.00     0.016 C 
ATOM     27  C   UNL     1       6.107   0.594  -0.537  1.00  0.00     0.016 C 
ATOM     28  C   UNL     1       6.568  -0.825  -0.869  1.00  0.00     0.003 C 
ENDBRANCH  22  23
ENDBRANCH  21  22
ENDBRANCH  20  21
ENDBRANCH   1  20
TORSDOF 8
