REMARK SMILES CCCCC1(CN2CCN(C)CC2)C(=O)N(c2ccccc2)N(c2ccccc2)C1=O
REMARK SMILES IDX 5 1 14 2 15 3 16 4 23 5 30 6 31 7 4 8 3 9 2 10 1 11 6 12
REMARK SMILES IDX 7 13 8 14 13 15 9 16 12 17 10 18 11 19 17 20 18 21 22 22
REMARK SMILES IDX 19 23 21 24 20 25 24 26 25 27 29 28 26 29 28 30 27 31
REMARK H PARENT
ROOT
ATOM      1  C   UNL     1       0.374   1.420   0.211  1.00  0.00     0.145 C 
ATOM      2  C   UNL     1      -0.519   0.910   1.326  1.00  0.00     0.263 C 
ATOM      3  O   UNL     1      -0.380   1.212   2.505  1.00  0.00    -0.271 OA
ATOM      4  N   UNL     1      -1.439   0.024   0.744  1.00  0.00    -0.213 N 
ATOM      5  N   UNL     1      -1.351   0.095  -0.671  1.00  0.00    -0.213 N 
ATOM      6  C   UNL     1      -0.235   0.856  -1.052  1.00  0.00     0.263 C 
ATOM      7  O   UNL     1       0.175   1.109  -2.178  1.00  0.00    -0.271 OA
ENDROOT
BRANCH   1   8
ATOM      8  C   UNL     1       0.279   2.968   0.201  1.00  0.00     0.028 C 
BRANCH   8   9
ATOM      9  C   UNL     1       1.321   3.689  -0.664  1.00  0.00     0.001 C 
BRANCH   9  10
ATOM     10  C   UNL     1       1.150   5.212  -0.669  1.00  0.00    -0.003 C 
ATOM     11  C   UNL     1      -0.108   5.679  -1.384  1.00  0.00     0.004 C 
ENDBRANCH   9  10
ENDBRANCH   8   9
ENDBRANCH   1   8
BRANCH   1  12
ATOM     12  C   UNL     1       1.803   0.884   0.422  1.00  0.00     0.111 C 
BRANCH  12  13
ATOM     13  N   UNL     1       1.880  -0.580   0.615  1.00  0.00    -0.299 NA
ATOM     14  C   UNL     1       2.838  -0.931   1.686  1.00  0.00     0.100 C 
ATOM     15  C   UNL     1       2.240  -1.302  -0.624  1.00  0.00     0.100 C 
ATOM     16  C   UNL     1       2.959  -2.459   1.896  1.00  0.00     0.099 C 
ATOM     17  C   UNL     1       2.360  -2.829  -0.401  1.00  0.00     0.099 C 
ATOM     18  N   UNL     1       3.282  -3.232   0.679  1.00  0.00    -0.304 NA
ATOM     19  C   UNL     1       4.680  -3.061   0.287  1.00  0.00     0.105 C 
ENDBRANCH  12  13
ENDBRANCH   1  12
BRANCH   4  20
ATOM     20  C   UNL     1      -1.828  -1.178   1.424  1.00  0.00     0.067 A 
ATOM     21  C   UNL     1      -2.032  -2.378   0.723  1.00  0.00     0.028 A 
ATOM     22  C   UNL     1      -2.014  -1.196   2.815  1.00  0.00     0.028 A 
ATOM     23  C   UNL     1      -2.403  -3.552   1.386  1.00  0.00     0.002 A 
ATOM     24  C   UNL     1      -2.380  -2.371   3.480  1.00  0.00     0.002 A 
ATOM     25  C   UNL     1      -2.577  -3.548   2.766  1.00  0.00     0.000 A 
ENDBRANCH   4  20
BRANCH   5  26
ATOM     26  C   UNL     1      -2.499  -0.028  -1.518  1.00  0.00     0.067 A 
ATOM     27  C   UNL     1      -3.796  -0.075  -0.979  1.00  0.00     0.028 A 
ATOM     28  C   UNL     1      -2.366  -0.110  -2.912  1.00  0.00     0.028 A 
ATOM     29  C   UNL     1      -4.919  -0.186  -1.806  1.00  0.00     0.002 A 
ATOM     30  C   UNL     1      -3.488  -0.229  -3.739  1.00  0.00     0.002 A 
ATOM     31  C   UNL     1      -4.765  -0.265  -3.187  1.00  0.00     0.000 A 
ENDBRANCH   5  26
TORSDOF 7
