REMARK SMILES CC(=O)O[C@H]1C[C@@H]2CC[C@@H]3[C@H](CC[C@@]4(C)[C@H]3C[C@H](N3CC[N+](C)(C)CC3)[C@@H]4OC(C)=O)[C@@]2(C)C[C@@H]1N1CC[N+](C)(C)CC1
REMARK SMILES IDX 27 1 18 2 17 3 16 4 10 5 9 6 8 7 7 8 6 9 5 10 35 11 34 12
REMARK SMILES IDX 32 13 33 14 11 15 12 16 13 17 14 18 15 19 28 20 29 21 31 22
REMARK SMILES IDX 30 23 19 24 20 25 26 26 21 27 25 28 22 29 23 30 24 31 36 32
REMARK SMILES IDX 37 33 43 34 38 35 42 36 39 37 40 38 41 39 4 40 2 41 3 42
REMARK SMILES IDX 1 43
REMARK H PARENT
ROOT
ATOM      1  C   UNL     1       3.628  -1.538  -1.148  1.00  0.00     0.199 C 
ATOM      2  C   UNL     1       4.366  -1.018   0.151  1.00  0.00     0.099 C 
ATOM      3  C   UNL     1       3.410   0.022   0.790  1.00  0.00     0.027 C 
ATOM      4  C   UNL     1       2.049  -0.518   0.354  1.00  0.00     0.004 C 
ATOM      5  C   UNL     1       0.768   0.276   0.649  1.00  0.00    -0.004 C 
ATOM      6  C   UNL     1       0.669   0.632   2.143  1.00  0.00     0.004 C 
ATOM      7  C   UNL     1      -0.679   1.241   2.521  1.00  0.00     0.004 C 
ATOM      8  C   UNL     1      -1.824   0.322   2.080  1.00  0.00    -0.001 C 
ATOM      9  C   UNL     1      -3.172   0.804   2.623  1.00  0.00     0.051 C 
ATOM     10  C   UNL     1      -4.309  -0.167   2.282  1.00  0.00     0.194 C 
ATOM     11  C   UNL     1      -4.437  -0.443   0.746  1.00  0.00     0.098 C 
ATOM     12  C   UNL     1      -3.024  -0.878   0.223  1.00  0.00     0.030 C 
ATOM     13  C   UNL     1      -1.839   0.091   0.539  1.00  0.00    -0.025 C 
ATOM     14  C   UNL     1      -2.022   1.405  -0.258  1.00  0.00     0.012 C 
ATOM     15  C   UNL     1      -0.454  -0.583   0.175  1.00  0.00    -0.001 C 
ATOM     16  C   UNL     1      -0.300  -1.013  -1.306  1.00  0.00     0.005 C 
ATOM     17  C   UNL     1       1.062  -1.666  -1.617  1.00  0.00     0.011 C 
ATOM     18  C   UNL     1       2.249  -0.798  -1.152  1.00  0.00     0.009 C 
ATOM     19  C   UNL     1       2.314   0.475  -2.036  1.00  0.00     0.016 C 
ENDROOT
BRANCH   1  20
ATOM     20  O   UNL     1       4.383  -1.302  -2.348  1.00  0.00    -0.460 OA
BRANCH  20  21
ATOM     21  C   UNL     1       4.162  -2.186  -3.365  1.00  0.00     0.302 C 
ATOM     22  O   UNL     1       3.451  -3.180  -3.290  1.00  0.00    -0.253 OA
ATOM     23  C   UNL     1       4.888  -1.754  -4.593  1.00  0.00     0.139 C 
ENDBRANCH  20  21
ENDBRANCH   1  20
BRANCH   2  24
ATOM     24  N   UNL     1       5.793  -0.675   0.074  1.00  0.00    -0.286 NA
ATOM     25  C   UNL     1       6.149   0.482  -0.761  1.00  0.00     0.146 C 
ATOM     26  C   UNL     1       6.460  -0.674   1.382  1.00  0.00     0.146 C 
ATOM     27  C   UNL     1       6.895   1.624  -0.035  1.00  0.00     0.279 C 
ATOM     28  C   UNL     1       7.953  -0.313   1.261  1.00  0.00     0.279 C 
ATOM     29  N   UNL     1       8.155   1.128   0.716  1.00  0.00    -0.326 N 
ATOM     30  C   UNL     1       9.354   1.138  -0.228  1.00  0.00     0.334 C 
ATOM     31  C   UNL     1       8.443   2.072   1.877  1.00  0.00     0.334 C 
ENDBRANCH   2  24
BRANCH  11  32
ATOM     32  N   UNL     1      -5.069   0.668  -0.027  1.00  0.00    -0.286 NA
ATOM     33  C   UNL     1      -5.314   0.359  -1.455  1.00  0.00     0.146 C 
ATOM     34  C   UNL     1      -6.311   1.153   0.624  1.00  0.00     0.146 C 
ATOM     35  C   UNL     1      -6.744  -0.115  -1.795  1.00  0.00     0.279 C 
ATOM     36  C   UNL     1      -7.287   1.891  -0.313  1.00  0.00     0.279 C 
ATOM     37  N   UNL     1      -7.809   0.954  -1.429  1.00  0.00    -0.326 N 
ATOM     38  C   UNL     1      -8.156   1.798  -2.657  1.00  0.00     0.334 C 
ATOM     39  C   UNL     1      -9.081   0.245  -0.957  1.00  0.00     0.334 C 
ENDBRANCH  11  32
BRANCH  10  40
ATOM     40  O   UNL     1      -4.052  -1.429   2.947  1.00  0.00    -0.461 OA
BRANCH  40  41
ATOM     41  C   UNL     1      -5.140  -2.059   3.480  1.00  0.00     0.302 C 
ATOM     42  O   UNL     1      -6.296  -1.652   3.423  1.00  0.00    -0.253 OA
ATOM     43  C   UNL     1      -4.737  -3.347   4.129  1.00  0.00     0.139 C 
ENDBRANCH  40  41
ENDBRANCH  10  40
TORSDOF 6
