REMARK SMILES NS(=O)(=O)c1cc(C(=O)O)cc(N2CCCC2)c1Oc1ccccc1
REMARK SMILES IDX 5 1 6 2 7 3 11 4 12 5 18 6 2 7 3 8 4 9 1 10 19 13 20 14
REMARK SMILES IDX 21 15 25 16 22 17 24 18 23 19 8 20 9 21 10 22 13 24 14 25
REMARK SMILES IDX 17 26 15 27 16 28
REMARK H PARENT 1 11 1 12 10 23
ROOT
ATOM      1  C   UNL     1      -0.982   1.639   0.232  1.00  0.00     0.127 A 
ATOM      2  C   UNL     1      -0.640   2.590  -0.733  1.00  0.00     0.041 A 
ATOM      3  C   UNL     1       0.554   2.452  -1.429  1.00  0.00     0.063 A 
ATOM      4  C   UNL     1       1.413   1.384  -1.130  1.00  0.00     0.045 A 
ATOM      5  C   UNL     1       1.120   0.409  -0.150  1.00  0.00     0.082 A 
ATOM      6  C   UNL     1      -0.146   0.531   0.481  1.00  0.00     0.170 A 
ENDROOT
BRANCH   1   7
ATOM      7  S   UNL     1      -2.454   1.894   1.175  1.00  0.00     0.241 S 
ATOM      8  O   UNL     1      -2.238   1.541   2.560  1.00  0.00    -0.207 OA
ATOM      9  O   UNL     1      -3.586   1.440   0.404  1.00  0.00    -0.207 OA
BRANCH   7  10
ATOM     10  N   UNL     1      -2.607   3.575   1.226  1.00  0.00    -0.225 NA
ATOM     11  H   UNL     1      -2.528   3.878   2.199  1.00  0.00     0.137 HD
ATOM     12  H   UNL     1      -3.493   3.838   0.792  1.00  0.00     0.137 HD
ENDBRANCH   7  10
ENDBRANCH   1   7
BRANCH   6  13
ATOM     13  O   UNL     1      -0.553  -0.425   1.388  1.00  0.00    -0.454 OA
BRANCH  13  14
ATOM     14  C   UNL     1      -1.527  -1.314   0.974  1.00  0.00     0.127 A 
ATOM     15  C   UNL     1      -2.347  -1.826   1.982  1.00  0.00     0.047 A 
ATOM     16  C   UNL     1      -1.693  -1.747  -0.344  1.00  0.00     0.047 A 
ATOM     17  C   UNL     1      -3.349  -2.746   1.672  1.00  0.00     0.004 A 
ATOM     18  C   UNL     1      -2.696  -2.668  -0.653  1.00  0.00     0.004 A 
ATOM     19  C   UNL     1      -3.524  -3.164   0.354  1.00  0.00     0.000 A 
ENDBRANCH  13  14
ENDBRANCH   6  13
BRANCH   3  20
ATOM     20  C   UNL     1       0.972   3.415  -2.477  1.00  0.00     0.335 C 
ATOM     21  O   UNL     1       2.014   3.382  -3.104  1.00  0.00    -0.246 OA
BRANCH  20  22
ATOM     22  O   UNL     1       0.057   4.377  -2.692  1.00  0.00    -0.478 OA
ATOM     23  H   UNL     1       0.456   4.928  -3.398  1.00  0.00     0.297 HD
ENDBRANCH  20  22
ENDBRANCH   3  20
BRANCH   5  24
ATOM     24  N   UNL     1       2.046  -0.590   0.106  1.00  0.00    -0.368 N 
ATOM     25  C   UNL     1       1.878  -1.671   1.081  1.00  0.00     0.117 C 
ATOM     26  C   UNL     1       3.464  -0.456  -0.261  1.00  0.00     0.117 C 
ATOM     27  C   UNL     1       3.176  -2.467   0.980  1.00  0.00     0.023 C 
ATOM     28  C   UNL     1       4.203  -1.393   0.690  1.00  0.00     0.023 C 
ENDBRANCH   5  24
TORSDOF 7
