REMARK SMILES C[C@]12CCC(=O)C=C1C=C[C@@H]1[C@@H]2CC[C@@]2(C)[C@H]1CC[C@@]2(O)CCC(=O)O
REMARK SMILES IDX 22 1 20 2 15 3 14 4 17 5 13 6 11 7 18 8 19 9 12 10 10 11
REMARK SMILES IDX 2 12 9 13 3 14 8 15 4 16 7 17 5 18 6 19 16 20 1 21 21 22
REMARK SMILES IDX 23 24 24 25 25 26 26 27
REMARK H PARENT 21 23 26 28
ROOT
ATOM      1  C   UNL     1       3.209   0.514  -0.571  1.00  0.00     0.047 C 
ENDROOT
BRANCH   1   2
ATOM      2  C   UNL     1       2.831   0.004   0.839  1.00  0.00     0.071 C 
ATOM      3  C   UNL     1       1.336   0.237   1.254  1.00  0.00    -0.000 C 
ATOM      4  C   UNL     1       0.649   1.520   0.744  1.00  0.00     0.010 C 
ATOM      5  C   UNL     1       0.659  -0.980   0.575  1.00  0.00     0.005 C 
ATOM      6  C   UNL     1      -0.881   1.494   0.954  1.00  0.00     0.006 C 
ATOM      7  C   UNL     1      -0.839  -1.068   0.897  1.00  0.00     0.019 C 
ATOM      8  C   UNL     1       1.564  -2.141   0.967  1.00  0.00     0.008 C 
ATOM      9  C   UNL     1       2.982  -1.540   0.962  1.00  0.00     0.036 C 
ATOM     10  C   UNL     1      -1.524   0.231   0.338  1.00  0.00     0.006 C 
ATOM     11  C   UNL     1      -1.512  -2.322   0.386  1.00  0.00    -0.023 C 
ATOM     12  C   UNL     1      -3.082   0.114   0.436  1.00  0.00    -0.004 C 
ATOM     13  C   UNL     1      -2.713  -2.324  -0.213  1.00  0.00     0.000 C 
ATOM     14  C   UNL     1      -3.845   1.392  -0.022  1.00  0.00     0.020 C 
ATOM     15  C   UNL     1      -3.446  -1.091  -0.456  1.00  0.00    -0.039 C 
ATOM     16  C   UNL     1      -4.004   1.503  -1.527  1.00  0.00     0.081 C 
ATOM     17  C   UNL     1      -4.270  -1.032  -1.516  1.00  0.00     0.051 C 
ATOM     18  C   UNL     1      -4.727   0.279  -2.028  1.00  0.00     0.156 C 
ATOM     19  O   UNL     1      -5.593   0.328  -2.897  1.00  0.00    -0.295 OA
ATOM     20  C   UNL     1       1.227   0.222   2.810  1.00  0.00     0.015 C 
ATOM     21  C   UNL     1      -3.549  -0.137   1.896  1.00  0.00     0.017 C 
BRANCH   2  22
ATOM     22  O   UNL     1       3.722   0.629   1.763  1.00  0.00    -0.389 OA
ATOM     23  H   UNL     1       3.530   1.584   1.762  1.00  0.00     0.211 HD
ENDBRANCH   2  22
ENDBRANCH   1   2
BRANCH   1  24
ATOM     24  C   UNL     1       4.689   0.325  -0.936  1.00  0.00     0.125 C 
BRANCH  24  25
ATOM     25  C   UNL     1       4.988   0.893  -2.297  1.00  0.00     0.303 C 
ATOM     26  O   UNL     1       4.219   1.479  -3.039  1.00  0.00    -0.252 OA
BRANCH  25  27
ATOM     27  O   UNL     1       6.270   0.693  -2.657  1.00  0.00    -0.481 OA
ATOM     28  H   UNL     1       6.338   1.104  -3.544  1.00  0.00     0.296 HD
ENDBRANCH  25  27
ENDBRANCH  24  25
ENDBRANCH   1  24
TORSDOF 5
