REMARK SMILES C[C@]12C=CC(=O)C=C1CC[C@@H]1[C@@H]2[C@@H](O)C[C@@]2(C)[C@H]1CC[C@]2(O)C(=O)COC(=O)CCC(=O)O
REMARK SMILES IDX 27 1 28 2 26 3 25 4 23 5 24 6 21 7 16 8 15 9 18 10 13 11
REMARK SMILES IDX 11 12 19 13 20 14 12 15 10 16 2 17 9 18 3 19 8 20 4 21 7 22
REMARK SMILES IDX 5 23 6 24 17 25 1 26 22 27 14 29 29 31 30 32 31 33 32 34
REMARK SMILES IDX 33 35
REMARK H PARENT 22 28 14 30 33 36
ROOT
ATOM      1  C   UNL     1       5.437  -0.549   0.378  1.00  0.00     0.306 C 
ATOM      2  O   UNL     1       5.129  -0.252  -0.771  1.00  0.00    -0.252 OA
ENDROOT
BRANCH   1   3
ATOM      3  O   UNL     1       4.574  -0.588   1.432  1.00  0.00    -0.458 OA
BRANCH   3   4
ATOM      4  C   UNL     1       3.229  -0.266   1.072  1.00  0.00     0.311 C 
BRANCH   4   5
ATOM      5  C   UNL     1       2.587  -1.377   0.241  1.00  0.00     0.202 C 
ATOM      6  O   UNL     1       2.953  -2.550   0.363  1.00  0.00    -0.293 OA
BRANCH   5   7
ATOM      7  C   UNL     1       1.452  -0.962  -0.721  1.00  0.00     0.132 C 
ATOM      8  C   UNL     1       0.081  -0.702  -0.015  1.00  0.00     0.009 C 
ATOM      9  C   UNL     1      -0.109   0.700   0.606  1.00  0.00     0.042 C 
ATOM     10  C   UNL     1      -0.868  -0.784  -1.234  1.00  0.00     0.002 C 
ATOM     11  C   UNL     1      -1.578   1.024   0.962  1.00  0.00     0.119 C 
ATOM     12  C   UNL     1      -2.354  -0.643  -0.870  1.00  0.00    -0.000 C 
ATOM     13  C   UNL     1      -0.412  -2.044  -1.959  1.00  0.00     0.008 C 
ATOM     14  C   UNL     1       1.117  -2.063  -1.769  1.00  0.00     0.044 C 
ATOM     15  C   UNL     1      -2.580   0.759  -0.203  1.00  0.00     0.035 C 
ATOM     16  C   UNL     1      -3.239  -0.810  -2.120  1.00  0.00     0.009 C 
ATOM     17  C   UNL     1      -4.103   1.023   0.122  1.00  0.00     0.013 C 
ATOM     18  C   UNL     1      -4.712  -0.551  -1.827  1.00  0.00     0.032 C 
ATOM     19  C   UNL     1      -4.295   2.448   0.634  1.00  0.00    -0.012 C 
ATOM     20  C   UNL     1      -4.888   0.799  -1.181  1.00  0.00    -0.056 C 
ATOM     21  C   UNL     1      -5.058   3.383   0.052  1.00  0.00     0.048 C 
ATOM     22  C   UNL     1      -5.654   1.740  -1.763  1.00  0.00     0.052 C 
ATOM     23  C   UNL     1      -5.801   3.092  -1.188  1.00  0.00     0.178 C 
ATOM     24  O   UNL     1      -6.505   3.940  -1.721  1.00  0.00    -0.290 OA
ATOM     25  C   UNL     1      -0.181  -1.812   1.040  1.00  0.00     0.015 C 
ATOM     26  C   UNL     1      -4.694   0.093   1.206  1.00  0.00     0.021 C 
BRANCH   7  27
ATOM     27  O   UNL     1       1.857   0.205  -1.446  1.00  0.00    -0.381 OA
ATOM     28  H   UNL     1       2.667  -0.019  -1.949  1.00  0.00     0.212 HD
ENDBRANCH   7  27
BRANCH  11  29
ATOM     29  O   UNL     1      -1.947   0.306   2.131  1.00  0.00    -0.393 OA
ATOM     30  H   UNL     1      -1.363   0.592   2.855  1.00  0.00     0.210 HD
ENDBRANCH  11  29
ENDBRANCH   5   7
ENDBRANCH   4   5
ENDBRANCH   3   4
ENDBRANCH   1   3
BRANCH   1  31
ATOM     31  C   UNL     1       6.823  -0.965   0.802  1.00  0.00     0.134 C 
BRANCH  31  32
ATOM     32  C   UNL     1       7.344  -0.145   1.970  1.00  0.00     0.134 C 
BRANCH  32  33
ATOM     33  C   UNL     1       7.544   1.282   1.555  1.00  0.00     0.303 C 
ATOM     34  O   UNL     1       6.666   2.119   1.421  1.00  0.00    -0.252 OA
BRANCH  33  35
ATOM     35  O   UNL     1       8.828   1.568   1.279  1.00  0.00    -0.481 OA
ATOM     36  H   UNL     1       8.813   2.511   1.010  1.00  0.00     0.296 HD
ENDBRANCH  33  35
ENDBRANCH  32  33
ENDBRANCH  31  32
ENDBRANCH   1  31
TORSDOF 10
