REMARK SMILES CCC(CC)(CO)CO
REMARK SMILES IDX 3 1 2 2 1 3 4 4 5 5 6 6 7 7 8 9 9 10
REMARK H PARENT 7 8 9 11
ROOT
ATOM      1  C   UNL     1      -0.042   0.133  -0.136  1.00  0.00     0.016 C 
ENDROOT
BRANCH   1   2
ATOM      2  C   UNL     1      -0.636  -1.309  -0.075  1.00  0.00     0.008 C 
ATOM      3  C   UNL     1      -2.046  -1.430   0.496  1.00  0.00     0.004 C 
ENDBRANCH   1   2
BRANCH   1   4
ATOM      4  C   UNL     1       1.342   0.095  -0.856  1.00  0.00     0.008 C 
ATOM      5  C   UNL     1       2.414  -0.763  -0.192  1.00  0.00     0.004 C 
ENDBRANCH   1   4
BRANCH   1   6
ATOM      6  C   UNL     1      -1.002   1.034  -0.965  1.00  0.00     0.165 C 
BRANCH   6   7
ATOM      7  O   UNL     1      -0.450   2.308  -1.261  1.00  0.00    -0.396 OA
ATOM      8  H   UNL     1      -1.117   2.809  -1.758  1.00  0.00     0.210 HD
ENDBRANCH   6   7
ENDBRANCH   1   6
BRANCH   1   9
ATOM      9  C   UNL     1       0.092   0.689   1.307  1.00  0.00     0.165 C 
BRANCH   9  10
ATOM     10  O   UNL     1       0.916   1.842   1.378  1.00  0.00    -0.396 OA
ATOM     11  H   UNL     1       0.875   2.176   2.289  1.00  0.00     0.210 HD
ENDBRANCH   9  10
ENDBRANCH   1   9
TORSDOF 6
