REMARK SMILES CC[N+]1(CC)CCC(=C(c2ccccc2)c2ccccc2)C1C
REMARK SMILES IDX 3 1 6 2 7 3 8 4 22 5 23 6 9 7 2 8 1 9 4 10 5 11 10 12 11 13
REMARK SMILES IDX 15 14 12 15 14 16 13 17 16 18 17 19 21 20 18 21 20 22 19 23
REMARK H PARENT
ROOT
ATOM      1  N   UNL     1      -2.377   0.282   0.476  1.00  0.00    -0.318 N 
ATOM      2  C   UNL     1      -1.884   1.212   1.606  1.00  0.00     0.269 C 
ATOM      3  C   UNL     1      -0.359   1.256   1.525  1.00  0.00     0.099 C 
ATOM      4  C   UNL     1       0.052   0.145   0.591  1.00  0.00     0.001 C 
ATOM      5  C   UNL     1      -1.173  -0.684   0.278  1.00  0.00     0.210 C 
ATOM      6  C   UNL     1      -1.210  -1.880   1.242  1.00  0.00     0.080 C 
ATOM      7  C   UNL     1       1.291  -0.011   0.065  1.00  0.00    -0.006 C 
ENDROOT
BRANCH   1   8
ATOM      8  C   UNL     1      -2.698   1.072  -0.822  1.00  0.00     0.260 C 
ATOM      9  C   UNL     1      -1.643   2.057  -1.296  1.00  0.00     0.071 C 
ENDBRANCH   1   8
BRANCH   1  10
ATOM     10  C   UNL     1      -3.687  -0.397   0.940  1.00  0.00     0.260 C 
ATOM     11  C   UNL     1      -4.296  -1.316  -0.110  1.00  0.00     0.071 C 
ENDBRANCH   1  10
BRANCH   7  12
ATOM     12  C   UNL     1       1.547  -1.105  -0.898  1.00  0.00    -0.018 A 
ATOM     13  C   UNL     1       2.104  -2.311  -0.455  1.00  0.00     0.009 A 
ATOM     14  C   UNL     1       1.246  -0.947  -2.258  1.00  0.00     0.009 A 
ATOM     15  C   UNL     1       2.333  -3.353  -1.355  1.00  0.00     0.001 A 
ATOM     16  C   UNL     1       1.476  -1.991  -3.155  1.00  0.00     0.001 A 
ATOM     17  C   UNL     1       2.015  -3.194  -2.702  1.00  0.00     0.000 A 
ENDBRANCH   7  12
BRANCH   7  18
ATOM     18  C   UNL     1       2.369   0.918   0.476  1.00  0.00    -0.018 A 
ATOM     19  C   UNL     1       3.004   0.766   1.716  1.00  0.00     0.009 A 
ATOM     20  C   UNL     1       2.765   1.957  -0.375  1.00  0.00     0.009 A 
ATOM     21  C   UNL     1       4.013   1.650   2.103  1.00  0.00     0.001 A 
ATOM     22  C   UNL     1       3.774   2.839   0.014  1.00  0.00     0.001 A 
ATOM     23  C   UNL     1       4.395   2.686   1.253  1.00  0.00     0.000 A 
ENDBRANCH   7  18
TORSDOF 4
