REMARK SMILES CNNCc1ccc(C(=O)NC(C)C)cc1
REMARK SMILES IDX 5 1 6 2 7 3 8 4 15 5 16 6 4 7 3 8 2 10 1 11 9 13 10 14 11 15
REMARK SMILES IDX 12 17 13 18 14 19
REMARK H PARENT 3 9 2 12 11 16
ROOT
ATOM      1  C   UNL     1       1.954  -0.986   0.159  1.00  0.00    -0.033 A 
ATOM      2  C   UNL     1       1.096  -0.309   1.039  1.00  0.00     0.006 A 
ATOM      3  C   UNL     1      -0.280  -0.255   0.796  1.00  0.00     0.014 A 
ATOM      4  C   UNL     1      -0.812  -0.870  -0.343  1.00  0.00     0.039 A 
ATOM      5  C   UNL     1       0.037  -1.557  -1.219  1.00  0.00     0.014 A 
ATOM      6  C   UNL     1       1.412  -1.609  -0.973  1.00  0.00     0.006 A 
ENDROOT
BRANCH   1   7
ATOM      7  C   UNL     1       3.441  -1.027   0.429  1.00  0.00     0.134 C 
BRANCH   7   8
ATOM      8  N   UNL     1       4.052   0.282   0.162  1.00  0.00    -0.254 NA
ATOM      9  H   UNL     1       3.838   0.557  -0.800  1.00  0.00     0.142 HD
BRANCH   8  10
ATOM     10  N   UNL     1       5.475   0.210   0.419  1.00  0.00    -0.261 NA
ATOM     11  C   UNL     1       5.981   1.565   0.620  1.00  0.00     0.120 C 
ATOM     12  H   UNL     1       5.987  -0.232  -0.349  1.00  0.00     0.141 HD
ENDBRANCH   8  10
ENDBRANCH   7   8
ENDBRANCH   1   7
BRANCH   4  13
ATOM     13  C   UNL     1      -2.269  -0.845  -0.652  1.00  0.00     0.251 C 
ATOM     14  O   UNL     1      -2.778  -1.765  -1.283  1.00  0.00    -0.269 OA
ATOM     15  N   UNL     1      -2.971   0.262  -0.220  1.00  0.00    -0.350 N 
ATOM     16  H   UNL     1      -2.489   1.004   0.267  1.00  0.00     0.164 HD
BRANCH  15  17
ATOM     17  C   UNL     1      -4.412   0.372  -0.392  1.00  0.00     0.076 C 
ATOM     18  C   UNL     1      -5.141  -0.371   0.726  1.00  0.00     0.030 C 
ATOM     19  C   UNL     1      -4.828   1.839  -0.426  1.00  0.00     0.030 C 
ENDBRANCH  15  17
ENDBRANCH   4  13
TORSDOF 5
