REMARK SMILES CCN(CC)CCOC(=O)c1ccc(N)cc1
REMARK SMILES IDX 7 1 6 2 3 3 2 4 1 5 4 6 5 7 8 8 9 9 10 10 11 11 12 12 17 13
REMARK SMILES IDX 13 14 16 15 14 16 15 17
REMARK H PARENT 15 18 15 19
ROOT
ATOM      1  C   UNL     1      -0.784  -0.297  -1.414  1.00  0.00     0.248 C 
ENDROOT
BRANCH   1   2
ATOM      2  C   UNL     1      -1.676   0.367  -0.350  1.00  0.00     0.126 C 
BRANCH   2   3
ATOM      3  N   UNL     1      -3.121   0.344  -0.652  1.00  0.00    -0.301 NA
BRANCH   3   4
ATOM      4  C   UNL     1      -3.662  -1.016  -0.827  1.00  0.00     0.081 C 
ATOM      5  C   UNL     1      -3.532  -1.960   0.365  1.00  0.00     0.021 C 
ENDBRANCH   3   4
BRANCH   3   6
ATOM      6  C   UNL     1      -3.899   1.100   0.345  1.00  0.00     0.081 C 
ATOM      7  C   UNL     1      -3.706   2.609   0.224  1.00  0.00     0.021 C 
ENDBRANCH   3   6
ENDBRANCH   2   3
ENDBRANCH   1   2
BRANCH   1   8
ATOM      8  O   UNL     1       0.606  -0.030  -1.150  1.00  0.00    -0.461 OA
BRANCH   8   9
ATOM      9  C   UNL     1       1.187  -0.828  -0.220  1.00  0.00     0.338 C 
ATOM     10  O   UNL     1       0.634  -1.723   0.399  1.00  0.00    -0.246 OA
BRANCH   9  11
ATOM     11  C   UNL     1       2.619  -0.466  -0.039  1.00  0.00     0.060 A 
ATOM     12  C   UNL     1       3.371  -1.187   0.896  1.00  0.00     0.018 A 
ATOM     13  C   UNL     1       3.230   0.573  -0.750  1.00  0.00     0.018 A 
ATOM     14  C   UNL     1       4.720  -0.880   1.104  1.00  0.00     0.026 A 
ATOM     15  C   UNL     1       4.581   0.871  -0.536  1.00  0.00     0.026 A 
ATOM     16  C   UNL     1       5.349   0.116   0.354  1.00  0.00     0.031 A 
BRANCH  16  17
ATOM     17  N   UNL     1       6.661   0.498   0.650  1.00  0.00    -0.399 N 
ATOM     18  H   UNL     1       7.229  -0.245   1.045  1.00  0.00     0.156 HD
ATOM     19  H   UNL     1       7.133   0.982  -0.107  1.00  0.00     0.156 HD
ENDBRANCH  16  17
ENDBRANCH   9  11
ENDBRANCH   8   9
ENDBRANCH   1   8
TORSDOF 8
