REMARK SMILES Nc1ccc2cc3ccc(N)cc3nc2c1
REMARK SMILES IDX 2 1 16 2 15 3 14 4 13 5 12 6 10 7 9 8 8 9 7 10 6 11 5 12
REMARK SMILES IDX 4 13 3 14 1 15 11 18
REMARK H PARENT 1 16 1 17 11 19 11 20
ROOT
ATOM      1  C   UNL     1      -3.593   0.592  -0.248  1.00  0.00     0.034 A 
ATOM      2  C   UNL     1      -2.339   1.201  -0.372  1.00  0.00     0.054 A 
ATOM      3  C   UNL     1      -1.152   0.503  -0.182  1.00  0.00     0.073 A 
ATOM      4  N   UNL     1       0.023   1.136  -0.357  1.00  0.00    -0.248 NA
ATOM      5  C   UNL     1       1.171   0.459  -0.172  1.00  0.00     0.073 A 
ATOM      6  C   UNL     1       2.386   1.111  -0.353  1.00  0.00     0.054 A 
ATOM      7  C   UNL     1       3.615   0.477  -0.136  1.00  0.00     0.034 A 
ATOM      8  C   UNL     1       3.620  -0.881   0.174  1.00  0.00     0.026 A 
ATOM      9  C   UNL     1       2.419  -1.564   0.363  1.00  0.00     0.012 A 
ATOM     10  C   UNL     1       1.194  -0.897   0.198  1.00  0.00     0.001 A 
ATOM     11  C   UNL     1      -0.031  -1.547   0.380  1.00  0.00     0.020 A 
ATOM     12  C   UNL     1      -1.229  -0.850   0.192  1.00  0.00     0.001 A 
ATOM     13  C   UNL     1      -2.480  -1.460   0.379  1.00  0.00     0.012 A 
ATOM     14  C   UNL     1      -3.652  -0.732   0.179  1.00  0.00     0.026 A 
ENDROOT
BRANCH   1  15
ATOM     15  N   UNL     1      -4.763   1.357  -0.333  1.00  0.00    -0.399 N 
ATOM     16  H   UNL     1      -4.672   2.182  -0.919  1.00  0.00     0.156 HD
ATOM     17  H   UNL     1      -5.595   0.819  -0.551  1.00  0.00     0.156 HD
ENDBRANCH   1  15
BRANCH   7  18
ATOM     18  N   UNL     1       4.813   1.134  -0.441  1.00  0.00    -0.399 N 
ATOM     19  H   UNL     1       4.760   2.145  -0.360  1.00  0.00     0.156 HD
ATOM     20  H   UNL     1       5.627   0.752   0.030  1.00  0.00     0.156 HD
ENDBRANCH   7  18
TORSDOF 2
