REMARK SMILES CC(CN1c2ccccc2Sc2ccccc21)N(C)C
REMARK SMILES IDX 1 1 2 2 3 3 4 4 5 5 17 6 6 7 10 8 12 9 16 10 7 11 9 12 11 13
REMARK SMILES IDX 13 14 15 15 8 16 14 17 18 18 19 19 20 20
REMARK H PARENT
ROOT
ATOM      1  C   UNL     1      -2.928  -0.493   1.103  1.00  0.00     0.026 C 
ATOM      2  C   UNL     1      -1.765  -0.222   0.128  1.00  0.00     0.072 C 
ENDROOT
BRANCH   2   3
ATOM      3  C   UNL     1      -0.593   0.497   0.889  1.00  0.00     0.141 C 
BRANCH   3   4
ATOM      4  N   UNL     1       0.765   0.098   0.408  1.00  0.00    -0.338 N 
ATOM      5  C   UNL     1       1.429   0.977  -0.499  1.00  0.00     0.055 A 
ATOM      6  C   UNL     1       1.353  -1.055   1.013  1.00  0.00     0.055 A 
ATOM      7  C   UNL     1       0.753   2.001  -1.197  1.00  0.00     0.027 A 
ATOM      8  C   UNL     1       2.807   0.864  -0.774  1.00  0.00     0.036 A 
ATOM      9  C   UNL     1       2.723  -1.356   0.872  1.00  0.00     0.036 A 
ATOM     10  C   UNL     1       0.599  -1.980   1.772  1.00  0.00     0.027 A 
ATOM     11  C   UNL     1       1.391   2.865  -2.097  1.00  0.00     0.002 A 
ATOM     12  C   UNL     1       3.450   1.737  -1.678  1.00  0.00     0.017 A 
ATOM     13  S   UNL     1       3.873  -0.333  -0.011  1.00  0.00    -0.086 SA
ATOM     14  C   UNL     1       3.285  -2.505   1.466  1.00  0.00     0.017 A 
ATOM     15  C   UNL     1       1.160  -3.121   2.360  1.00  0.00     0.002 A 
ATOM     16  C   UNL     1       2.746   2.735  -2.337  1.00  0.00     0.001 A 
ATOM     17  C   UNL     1       2.508  -3.386   2.208  1.00  0.00     0.001 A 
ENDBRANCH   3   4
ENDBRANCH   2   3
BRANCH   2  18
ATOM     18  N   UNL     1      -2.198   0.496  -1.099  1.00  0.00    -0.305 NA
ATOM     19  C   UNL     1      -2.749  -0.414  -2.102  1.00  0.00     0.105 C 
ATOM     20  C   UNL     1      -3.106   1.618  -0.871  1.00  0.00     0.105 C 
ENDBRANCH   2  18
TORSDOF 3
