REMARK SMILES CCC(=O)[C@@]1(C)CC[C@H]2[C@@H]3CCC4=CC(=O)CCC4=C3CC[C@@]21C
REMARK SMILES IDX 3 1 4 2 2 3 1 4 5 5 7 6 23 7 8 8 22 9 9 10 21 11 10 12 20 13
REMARK SMILES IDX 11 14 19 15 12 16 18 17 13 18 17 19 14 20 15 21 16 22 6 23
REMARK SMILES IDX 24 24
REMARK H PARENT
ROOT
ATOM      1  C   UNL     1       3.852  -0.644   0.341  1.00  0.00     0.139 C 
ATOM      2  O   UNL     1       4.350  -1.161   1.343  1.00  0.00    -0.299 OA
ENDROOT
BRANCH   1   3
ATOM      3  C   UNL     1       4.566   0.500  -0.369  1.00  0.00     0.073 C 
ATOM      4  C   UNL     1       5.671   1.109   0.478  1.00  0.00     0.012 C 
ENDBRANCH   1   3
BRANCH   1   5
ATOM      5  C   UNL     1       2.487  -1.120  -0.227  1.00  0.00     0.032 C 
ATOM      6  C   UNL     1       2.104  -2.522   0.365  1.00  0.00     0.015 C 
ATOM      7  C   UNL     1       1.278  -0.214   0.224  1.00  0.00    -0.017 C 
ATOM      8  C   UNL     1       0.620  -2.472   0.758  1.00  0.00     0.006 C 
ATOM      9  C   UNL     1       0.917   0.982  -0.673  1.00  0.00     0.012 C 
ATOM     10  C   UNL     1       0.094  -1.202   0.102  1.00  0.00     0.003 C 
ATOM     11  C   UNL     1      -0.418   1.637  -0.272  1.00  0.00     0.032 C 
ATOM     12  C   UNL     1      -1.250  -0.652   0.613  1.00  0.00     0.019 C 
ATOM     13  C   UNL     1      -1.591   0.677  -0.081  1.00  0.00    -0.063 C 
ATOM     14  C   UNL     1      -2.340  -1.716   0.398  1.00  0.00     0.013 C 
ATOM     15  C   UNL     1      -2.855   0.975  -0.483  1.00  0.00    -0.045 C 
ATOM     16  C   UNL     1      -3.716  -1.136   0.656  1.00  0.00     0.036 C 
ATOM     17  C   UNL     1      -3.191   2.234  -1.269  1.00  0.00     0.044 C 
ATOM     18  C   UNL     1      -3.979   0.068  -0.212  1.00  0.00    -0.041 C 
ATOM     19  C   UNL     1      -4.637   2.694  -1.176  1.00  0.00     0.085 C 
ATOM     20  C   UNL     1      -5.222   0.278  -0.674  1.00  0.00     0.051 C 
ATOM     21  C   UNL     1      -5.572   1.535  -1.364  1.00  0.00     0.156 C 
ATOM     22  O   UNL     1      -6.637   1.628  -1.966  1.00  0.00    -0.295 OA
ATOM     23  C   UNL     1       2.627  -1.281  -1.756  1.00  0.00     0.020 C 
ATOM     24  C   UNL     1       1.494   0.282   1.682  1.00  0.00     0.013 C 
ENDBRANCH   1   5
TORSDOF 2
