REMARK SMILES CCCOc1ccc([N+](=O)[O-])cc1NC(C)=O
REMARK SMILES IDX 4 1 3 2 2 3 1 4 5 5 13 6 6 7 12 8 7 9 8 10 14 11 15 12 17 13
REMARK SMILES IDX 16 15 9 16 10 17 11 18
REMARK H PARENT 14 14
ROOT
ATOM      1  O   UNL     1       0.766  -0.695  -0.809  1.00  0.00    -0.491 OA
ENDROOT
BRANCH   1   2
ATOM      2  C   UNL     1       1.906  -0.878  -1.649  1.00  0.00     0.229 C 
BRANCH   2   3
ATOM      3  C   UNL     1       2.409  -2.311  -1.486  1.00  0.00     0.038 C 
ATOM      4  C   UNL     1       2.886  -2.600  -0.070  1.00  0.00     0.007 C 
ENDBRANCH   2   3
ENDBRANCH   1   2
BRANCH   1   5
ATOM      5  C   UNL     1       0.184   0.552  -0.789  1.00  0.00     0.143 A 
ATOM      6  C   UNL     1      -0.898   0.695   0.111  1.00  0.00     0.090 A 
ATOM      7  C   UNL     1       0.585   1.633  -1.579  1.00  0.00     0.056 A 
ATOM      8  C   UNL     1      -1.562   1.921   0.213  1.00  0.00     0.115 A 
ATOM      9  C   UNL     1      -0.080   2.857  -1.478  1.00  0.00     0.089 A 
ATOM     10  C   UNL     1      -1.149   2.997  -0.584  1.00  0.00     0.271 A 
BRANCH   6  11
ATOM     11  N   UNL     1      -1.239  -0.446   0.872  1.00  0.00    -0.323 N 
ATOM     12  C   UNL     1      -2.248  -0.586   1.801  1.00  0.00     0.221 C 
ATOM     13  O   UNL     1      -3.064   0.268   2.127  1.00  0.00    -0.275 OA
ATOM     14  H   UNL     1      -0.654  -1.254   0.677  1.00  0.00     0.170 HD
ATOM     15  C   UNL     1      -2.296  -1.969   2.400  1.00  0.00     0.114 C 
ENDBRANCH   6  11
BRANCH  10  16
ATOM     16  N   UNL     1      -1.840   4.290  -0.485  1.00  0.00     0.062 N 
ATOM     17  O   UNL     1      -1.459   5.201  -1.233  1.00  0.00    -0.258 OA
ATOM     18  O   UNL     1      -2.760   4.398   0.338  1.00  0.00    -0.258 OA
ENDBRANCH  10  16
ENDBRANCH   1   5
TORSDOF 5
