REMARK SMILES CC(C)NCC(O)c1ccc2ccccc2c1
REMARK SMILES IDX 5 1 4 2 2 4 1 5 3 6 6 7 7 8 8 10 17 11 9 12 16 13 10 14
REMARK SMILES IDX 15 15 11 16 14 17 12 18 13 19
REMARK H PARENT 4 3 7 9
ROOT
ATOM      1  C   UNL     1      -1.427  -0.758  -0.087  1.00  0.00     0.117 C 
ENDROOT
BRANCH   1   2
ATOM      2  N   UNL     1      -2.752  -0.792  -0.732  1.00  0.00    -0.312 NA
ATOM      3  H   UNL     1      -2.666  -0.412  -1.675  1.00  0.00     0.123 HD
BRANCH   2   4
ATOM      4  C   UNL     1      -3.844  -0.108  -0.034  1.00  0.00     0.047 C 
ATOM      5  C   UNL     1      -4.186  -0.770   1.302  1.00  0.00     0.024 C 
ATOM      6  C   UNL     1      -5.077  -0.139  -0.944  1.00  0.00     0.024 C 
ENDBRANCH   2   4
ENDBRANCH   1   2
BRANCH   1   7
ATOM      7  C   UNL     1      -0.724   0.629  -0.045  1.00  0.00     0.158 C 
BRANCH   7   8
ATOM      8  O   UNL     1      -1.273   1.493   0.952  1.00  0.00    -0.387 OA
ATOM      9  H   UNL     1      -1.840   0.956   1.528  1.00  0.00     0.211 HD
ENDBRANCH   7   8
BRANCH   7  10
ATOM     10  C   UNL     1       0.763   0.483   0.211  1.00  0.00    -0.018 A 
ATOM     11  C   UNL     1       1.665   0.499  -0.866  1.00  0.00     0.015 A 
ATOM     12  C   UNL     1       1.267   0.290   1.503  1.00  0.00     0.007 A 
ATOM     13  C   UNL     1       3.047   0.333  -0.668  1.00  0.00    -0.018 A 
ATOM     14  C   UNL     1       2.638   0.125   1.717  1.00  0.00     0.009 A 
ATOM     15  C   UNL     1       3.950   0.352  -1.743  1.00  0.00     0.009 A 
ATOM     16  C   UNL     1       3.539   0.143   0.642  1.00  0.00    -0.018 A 
ATOM     17  C   UNL     1       5.319   0.185  -1.530  1.00  0.00     0.001 A 
ATOM     18  C   UNL     1       4.920  -0.023   0.841  1.00  0.00     0.009 A 
ATOM     19  C   UNL     1       5.804  -0.002  -0.238  1.00  0.00     0.001 A 
ENDBRANCH   7  10
ENDBRANCH   1   7
TORSDOF 5
