REMARK SMILES CCC(CO[N+](=O)[O-])(CO[N+](=O)[O-])CO[N+](=O)[O-]
REMARK SMILES IDX 3 1 2 2 1 3 4 4 5 5 6 6 7 7 8 8 9 9 10 10 11 11 12 12 13 13
REMARK SMILES IDX 14 14 15 15 16 16 17 17 18 18
REMARK H PARENT
ROOT
ATOM      1  C   UNL     1      -0.065  -0.005  -0.121  1.00  0.00     0.041 C 
ENDROOT
BRANCH   1   2
ATOM      2  C   UNL     1      -0.851  -0.162  -1.459  1.00  0.00     0.009 C 
ATOM      3  C   UNL     1      -2.086  -1.054  -1.403  1.00  0.00     0.005 C 
ENDBRANCH   1   2
BRANCH   1   4
ATOM      4  C   UNL     1      -0.954   0.719   0.927  1.00  0.00     0.219 C 
BRANCH   4   5
ATOM      5  O   UNL     1      -0.193   0.984   2.105  1.00  0.00    -0.313 OA
BRANCH   5   6
ATOM      6  N   UNL     1      -0.946   1.650   3.106  1.00  0.00     0.294 N 
ATOM      7  O   UNL     1      -2.126   1.892   2.853  1.00  0.00    -0.109 OA
ATOM      8  O   UNL     1      -0.285   1.889   4.113  1.00  0.00    -0.109 OA
ENDBRANCH   5   6
ENDBRANCH   4   5
ENDBRANCH   1   4
BRANCH   1   9
ATOM      9  C   UNL     1       1.218   0.833  -0.406  1.00  0.00     0.219 C 
BRANCH   9  10
ATOM     10  O   UNL     1       0.853   2.143  -0.837  1.00  0.00    -0.313 OA
BRANCH  10  11
ATOM     11  N   UNL     1       1.976   2.955  -1.136  1.00  0.00     0.294 N 
ATOM     12  O   UNL     1       3.089   2.452  -0.981  1.00  0.00    -0.109 OA
ATOM     13  O   UNL     1       1.659   4.080  -1.515  1.00  0.00    -0.109 OA
ENDBRANCH  10  11
ENDBRANCH   9  10
ENDBRANCH   1   9
BRANCH   1  14
ATOM     14  C   UNL     1       0.376  -1.380   0.452  1.00  0.00     0.219 C 
BRANCH  14  15
ATOM     15  O   UNL     1       1.107  -2.102  -0.537  1.00  0.00    -0.313 OA
BRANCH  15  16
ATOM     16  N   UNL     1       1.498  -3.392  -0.097  1.00  0.00     0.294 N 
ATOM     17  O   UNL     1       2.115  -4.019  -0.955  1.00  0.00    -0.109 OA
ATOM     18  O   UNL     1       1.183  -3.712   1.050  1.00  0.00    -0.109 OA
ENDBRANCH  15  16
ENDBRANCH  14  15
ENDBRANCH   1  14
TORSDOF 10
