REMARK SMILES CC(C)[N+](C)(CCOC(=O)C1c2ccccc2Oc2ccccc21)C(C)C
REMARK SMILES IDX 6 1 4 2 5 3 2 4 1 5 3 6 25 7 26 8 27 9 7 10 8 11 9 12 10 13
REMARK SMILES IDX 11 14 12 15 24 16 13 17 17 18 19 19 23 20 14 21 16 22 18 23
REMARK SMILES IDX 20 24 22 25 15 26 21 27
REMARK H PARENT
ROOT
ATOM      1  C   UNL     1      -1.446   0.640  -0.661  1.00  0.00     0.306 C 
ENDROOT
BRANCH   1   2
ATOM      2  N   UNL     1      -2.936   0.547  -0.124  1.00  0.00    -0.319 N 
ATOM      3  C   UNL     1      -3.313   2.031   0.125  1.00  0.00     0.335 C 
BRANCH   2   4
ATOM      4  C   UNL     1      -3.001  -0.262   1.236  1.00  0.00     0.179 C 
ATOM      5  C   UNL     1      -4.406  -0.286   1.848  1.00  0.00     0.075 C 
ATOM      6  C   UNL     1      -2.033   0.276   2.296  1.00  0.00     0.075 C 
ENDBRANCH   2   4
BRANCH   2   7
ATOM      7  C   UNL     1      -3.841  -0.050  -1.289  1.00  0.00     0.179 C 
ATOM      8  C   UNL     1      -5.243   0.570  -1.364  1.00  0.00     0.075 C 
ATOM      9  C   UNL     1      -3.951  -1.579  -1.256  1.00  0.00     0.075 C 
ENDBRANCH   2   7
ENDBRANCH   1   2
BRANCH   1  10
ATOM     10  C   UNL     1      -0.773  -0.687  -1.038  1.00  0.00     0.294 C 
BRANCH  10  11
ATOM     11  O   UNL     1       0.603  -0.485  -1.422  1.00  0.00    -0.459 OA
BRANCH  11  12
ATOM     12  C   UNL     1       1.475  -0.341  -0.376  1.00  0.00     0.318 C 
ATOM     13  O   UNL     1       1.098  -0.270   0.787  1.00  0.00    -0.251 OA
BRANCH  12  14
ATOM     14  C   UNL     1       2.919  -0.265  -0.869  1.00  0.00     0.167 C 
ATOM     15  C   UNL     1       3.712  -1.425  -0.320  1.00  0.00     0.014 A 
ATOM     16  C   UNL     1       3.528   1.062  -0.483  1.00  0.00     0.014 A 
ATOM     17  C   UNL     1       3.574  -2.718  -0.850  1.00  0.00     0.009 A 
ATOM     18  C   UNL     1       4.566  -1.219   0.768  1.00  0.00     0.131 A 
ATOM     19  C   UNL     1       4.391   1.125   0.616  1.00  0.00     0.131 A 
ATOM     20  C   UNL     1       3.214   2.240  -1.177  1.00  0.00     0.009 A 
ATOM     21  C   UNL     1       4.277  -3.785  -0.289  1.00  0.00     0.001 A 
ATOM     22  C   UNL     1       5.258  -2.290   1.334  1.00  0.00     0.047 A 
ATOM     23  O   UNL     1       4.772   0.016   1.335  1.00  0.00    -0.457 OA
ATOM     24  C   UNL     1       4.915   2.348   1.033  1.00  0.00     0.047 A 
ATOM     25  C   UNL     1       3.751   3.461  -0.766  1.00  0.00     0.001 A 
ATOM     26  C   UNL     1       5.115  -3.572   0.805  1.00  0.00     0.004 A 
ATOM     27  C   UNL     1       4.596   3.516   0.341  1.00  0.00     0.004 A 
ENDBRANCH  12  14
ENDBRANCH  11  12
ENDBRANCH  10  11
ENDBRANCH   1  10
TORSDOF 7
