REMARK SMILES CCCOc1ccc(C(=O)OCCN(CC)CC)cc1N
REMARK SMILES IDX 9 1 10 2 8 3 5 4 20 5 6 6 19 7 7 8 4 9 3 10 2 11 1 12 21 13
REMARK SMILES IDX 11 16 12 17 13 18 14 19 15 20 16 21 17 22 18 23
REMARK H PARENT 21 14 21 15
ROOT
ATOM      1  C   UNL     1      -0.604  -0.894  -0.053  1.00  0.00     0.338 C 
ATOM      2  O   UNL     1      -1.125  -1.221  -1.107  1.00  0.00    -0.246 OA
ENDROOT
BRANCH   1   3
ATOM      3  C   UNL     1       0.869  -0.841   0.155  1.00  0.00     0.062 A 
ATOM      4  C   UNL     1       3.637  -0.723   0.424  1.00  0.00     0.142 A 
ATOM      5  C   UNL     1       3.089  -1.127  -0.804  1.00  0.00     0.075 A 
ATOM      6  C   UNL     1       2.828  -0.457   1.528  1.00  0.00     0.049 A 
ATOM      7  C   UNL     1       1.699  -1.130  -0.941  1.00  0.00     0.045 A 
ATOM      8  C   UNL     1       1.441  -0.517   1.394  1.00  0.00     0.019 A 
BRANCH   4   9
ATOM      9  O   UNL     1       5.003  -0.668   0.564  1.00  0.00    -0.491 OA
BRANCH   9  10
ATOM     10  C   UNL     1       5.455   0.682   0.397  1.00  0.00     0.229 C 
BRANCH  10  11
ATOM     11  C   UNL     1       6.981   0.693   0.377  1.00  0.00     0.038 C 
ATOM     12  C   UNL     1       7.550  -0.069  -0.811  1.00  0.00     0.007 C 
ENDBRANCH  10  11
ENDBRANCH   9  10
ENDBRANCH   4   9
BRANCH   5  13
ATOM     13  N   UNL     1       3.909  -1.310  -1.931  1.00  0.00    -0.396 N 
ATOM     14  H   UNL     1       4.855  -1.570  -1.654  1.00  0.00     0.156 HD
ATOM     15  H   UNL     1       3.519  -1.944  -2.621  1.00  0.00     0.156 HD
ENDBRANCH   5  13
ENDBRANCH   1   3
BRANCH   1  16
ATOM     16  O   UNL     1      -1.258  -0.520   1.074  1.00  0.00    -0.461 OA
BRANCH  16  17
ATOM     17  C   UNL     1      -2.696  -0.550   0.997  1.00  0.00     0.248 C 
BRANCH  17  18
ATOM     18  C   UNL     1      -3.230   0.715   0.306  1.00  0.00     0.126 C 
BRANCH  18  19
ATOM     19  N   UNL     1      -4.707   0.800   0.367  1.00  0.00    -0.301 NA
BRANCH  19  20
ATOM     20  C   UNL     1      -5.112   2.172   0.734  1.00  0.00     0.081 C 
ATOM     21  C   UNL     1      -6.593   2.306   1.072  1.00  0.00     0.021 C 
ENDBRANCH  19  20
BRANCH  19  22
ATOM     22  C   UNL     1      -5.334   0.385  -0.905  1.00  0.00     0.081 C 
ATOM     23  C   UNL     1      -5.049  -1.058  -1.312  1.00  0.00     0.021 C 
ENDBRANCH  19  22
ENDBRANCH  18  19
ENDBRANCH  17  18
ENDBRANCH  16  17
ENDBRANCH   1  16
TORSDOF 11
