REMARK SMILES CCC(=O)N(c1ccccn1)C(C)CN1CCCCC1
REMARK SMILES IDX 5 1 3 2 4 3 2 4 1 5 12 6 13 7 14 8 15 9 16 10 20 11 17 12
REMARK SMILES IDX 19 13 18 14 6 15 7 16 11 17 8 18 10 19 9 20
REMARK H PARENT
ROOT
ATOM      1  N   UNL     1      -1.580   0.260   0.482  1.00  0.00    -0.293 N 
ENDROOT
BRANCH   1   2
ATOM      2  C   UNL     1      -2.245   1.381  -0.027  1.00  0.00     0.228 C 
ATOM      3  O   UNL     1      -1.662   2.463  -0.164  1.00  0.00    -0.274 OA
BRANCH   2   4
ATOM      4  C   UNL     1      -3.695   1.255  -0.481  1.00  0.00     0.097 C 
ATOM      5  C   UNL     1      -4.169   2.472  -1.265  1.00  0.00     0.014 C 
ENDBRANCH   2   4
ENDBRANCH   1   2
BRANCH   1   6
ATOM      6  C   UNL     1      -0.142   0.397   0.851  1.00  0.00     0.103 C 
ATOM      7  C   UNL     1       0.055   1.449   1.958  1.00  0.00     0.033 C 
BRANCH   6   8
ATOM      8  C   UNL     1       0.739   0.641  -0.411  1.00  0.00     0.109 C 
BRANCH   8   9
ATOM      9  N   UNL     1       2.093   0.047  -0.350  1.00  0.00    -0.301 NA
ATOM     10  C   UNL     1       2.700  -0.016  -1.683  1.00  0.00     0.084 C 
ATOM     11  C   UNL     1       2.974   0.737   0.608  1.00  0.00     0.084 C 
ATOM     12  C   UNL     1       3.966  -0.881  -1.653  1.00  0.00     0.016 C 
ATOM     13  C   UNL     1       4.471   0.649   0.273  1.00  0.00     0.016 C 
ATOM     14  C   UNL     1       4.810  -0.674  -0.395  1.00  0.00     0.003 C 
ENDBRANCH   8   9
ENDBRANCH   6   8
ENDBRANCH   1   6
BRANCH   1  15
ATOM     15  C   UNL     1      -2.202  -1.014   0.661  1.00  0.00     0.135 A 
ATOM     16  C   UNL     1      -1.469  -2.195   0.518  1.00  0.00     0.047 A 
ATOM     17  N   UNL     1      -3.514  -1.057   0.976  1.00  0.00    -0.239 NA
ATOM     18  C   UNL     1      -2.092  -3.429   0.714  1.00  0.00     0.005 A 
ATOM     19  C   UNL     1      -4.099  -2.262   1.168  1.00  0.00     0.113 A 
ATOM     20  C   UNL     1      -3.435  -3.467   1.051  1.00  0.00     0.020 A 
ENDBRANCH   1  15
TORSDOF 6
