REMARK SMILES O=Cc1ccc(O)c(O)c1
REMARK SMILES IDX 6 1 8 2 10 3 3 4 4 5 5 6 7 7 9 9 2 11 1 12
REMARK H PARENT 7 8 9 10
ROOT
ATOM      1  C   UNL     1      -1.397   0.015  -0.490  1.00  0.00     0.157 A 
ATOM      2  C   UNL     1      -0.675   1.157  -0.144  1.00  0.00     0.158 A 
ATOM      3  C   UNL     1       0.633   1.069   0.309  1.00  0.00     0.061 A 
ATOM      4  C   UNL     1       1.220  -0.193   0.413  1.00  0.00     0.018 A 
ATOM      5  C   UNL     1       0.501  -1.348   0.068  1.00  0.00     0.015 A 
ATOM      6  C   UNL     1      -0.817  -1.244  -0.388  1.00  0.00     0.051 A 
ENDROOT
BRANCH   1   7
ATOM      7  O   UNL     1      -2.681   0.185  -0.928  1.00  0.00    -0.504 OA
ATOM      8  H   UNL     1      -3.053  -0.691  -1.129  1.00  0.00     0.293 HD
ENDBRANCH   1   7
BRANCH   2   9
ATOM      9  O   UNL     1      -1.257   2.388  -0.250  1.00  0.00    -0.504 OA
ATOM     10  H   UNL     1      -2.160   2.208  -0.582  1.00  0.00     0.293 HD
ENDBRANCH   2   9
BRANCH   4  11
ATOM     11  C   UNL     1       2.611  -0.303   0.894  1.00  0.00     0.260 C 
ATOM     12  O   UNL     1       3.175  -1.385   1.005  1.00  0.00    -0.298 OA
ENDBRANCH   4  11
TORSDOF 3
