REMARK SMILES CN(C)C(=O)Oc1ccc[n+](C)c1
REMARK SMILES IDX 6 1 4 2 2 3 5 4 1 5 3 6 7 7 13 8 8 9 11 10 9 11 10 12 12 13
REMARK H PARENT
ROOT
ATOM      1  O   UNL     1      -0.800  -0.509  -0.489  1.00  0.00    -0.404 OA
ENDROOT
BRANCH   1   2
ATOM      2  C   UNL     1      -1.356   0.720  -0.119  1.00  0.00     0.414 C 
ATOM      3  N   UNL     1      -2.609   0.934  -0.664  1.00  0.00    -0.314 N 
ATOM      4  O   UNL     1      -0.769   1.516   0.609  1.00  0.00    -0.224 OA
ATOM      5  C   UNL     1      -3.340  -0.082  -1.406  1.00  0.00     0.150 C 
ATOM      6  C   UNL     1      -3.363   2.109  -0.262  1.00  0.00     0.150 C 
ENDBRANCH   1   2
BRANCH   1   7
ATOM      7  C   UNL     1       0.469  -0.833   0.015  1.00  0.00     0.196 A 
ATOM      8  C   UNL     1       1.532   0.068   0.031  1.00  0.00     0.355 A 
ATOM      9  C   UNL     1       0.655  -2.132   0.468  1.00  0.00     0.060 A 
ATOM     10  N   UNL     1       2.734  -0.307   0.528  1.00  0.00    -0.205 N 
ATOM     11  C   UNL     1       1.900  -2.496   0.970  1.00  0.00     0.075 A 
ATOM     12  C   UNL     1       2.930  -1.560   0.999  1.00  0.00     0.308 A 
ATOM     13  C   UNL     1       3.822   0.684   0.577  1.00  0.00     0.439 C 
ENDBRANCH   1   7
TORSDOF 2
