REMARK SMILES Cc1ncc(CSSCc2cnc(C)c(O)c2CO)c(CO)c1O
REMARK SMILES IDX 7 1 6 2 5 3 2 4 3 5 23 6 4 7 20 8 1 9 24 10 21 12 22 13 8 15
REMARK SMILES IDX 9 16 10 17 11 18 17 19 12 20 15 21 13 22 14 23 18 24 19 25
REMARK SMILES IDX 16 27
REMARK H PARENT 24 11 22 14 19 26 16 28
ROOT
ATOM      1  S   UNL     1       0.230  -0.541   0.698  1.00  0.00    -0.089 SA
ENDROOT
BRANCH   1   2
ATOM      2  C   UNL     1       1.469   0.782   0.933  1.00  0.00     0.119 C 
BRANCH   2   3
ATOM      3  C   UNL     1       2.840   0.416   0.420  1.00  0.00    -0.010 A 
ATOM      4  C   UNL     1       5.285  -0.182  -0.742  1.00  0.00     0.079 A 
ATOM      5  N   UNL     1       4.324   0.380  -1.509  1.00  0.00    -0.257 NA
ATOM      6  C   UNL     1       5.086  -0.462   0.614  1.00  0.00     0.142 A 
ATOM      7  C   UNL     1       3.142   0.659  -0.919  1.00  0.00     0.116 A 
ATOM      8  C   UNL     1       3.852  -0.163   1.218  1.00  0.00     0.027 A 
ATOM      9  C   UNL     1       6.578  -0.479  -1.441  1.00  0.00     0.071 C 
BRANCH   6  10
ATOM     10  O   UNL     1       6.063  -1.020   1.394  1.00  0.00    -0.506 OA
ATOM     11  H   UNL     1       6.854  -1.208   0.864  1.00  0.00     0.293 HD
ENDBRANCH   6  10
BRANCH   8  12
ATOM     12  C   UNL     1       3.650  -0.419   2.694  1.00  0.00     0.196 C 
BRANCH  12  13
ATOM     13  O   UNL     1       2.558  -1.296   2.930  1.00  0.00    -0.392 OA
ATOM     14  H   UNL     1       2.528  -1.929   2.191  1.00  0.00     0.211 HD
ENDBRANCH  12  13
ENDBRANCH   8  12
ENDBRANCH   2   3
ENDBRANCH   1   2
BRANCH   1  15
ATOM     15  S   UNL     1      -0.314  -0.377  -1.281  1.00  0.00    -0.089 SA
BRANCH  15  16
ATOM     16  C   UNL     1      -1.613   0.901  -1.264  1.00  0.00     0.119 C 
BRANCH  16  17
ATOM     17  C   UNL     1      -2.875   0.500  -0.541  1.00  0.00    -0.010 A 
ATOM     18  C   UNL     1      -3.139   1.094   0.697  1.00  0.00     0.116 A 
ATOM     19  C   UNL     1      -3.816  -0.430  -1.040  1.00  0.00     0.027 A 
ATOM     20  N   UNL     1      -4.227   0.851   1.454  1.00  0.00    -0.257 NA
ATOM     21  C   UNL     1      -4.950  -0.693  -0.250  1.00  0.00     0.142 A 
ATOM     22  C   UNL     1      -5.121  -0.045   0.976  1.00  0.00     0.079 A 
ATOM     23  C   UNL     1      -6.325  -0.318   1.828  1.00  0.00     0.071 C 
BRANCH  19  24
ATOM     24  C   UNL     1      -3.557  -1.159  -2.340  1.00  0.00     0.196 C 
BRANCH  24  25
ATOM     25  O   UNL     1      -4.748  -1.738  -2.878  1.00  0.00    -0.392 OA
ATOM     26  H   UNL     1      -4.486  -2.156  -3.720  1.00  0.00     0.211 HD
ENDBRANCH  24  25
ENDBRANCH  19  24
BRANCH  21  27
ATOM     27  O   UNL     1      -5.918  -1.576  -0.651  1.00  0.00    -0.506 OA
ATOM     28  H   UNL     1      -5.720  -1.806  -1.586  1.00  0.00     0.293 HD
ENDBRANCH  21  27
ENDBRANCH  16  17
ENDBRANCH  15  16
ENDBRANCH   1  15
TORSDOF 11
