REMARK SMILES CCC1(CC)C(=O)C=CNC1=O
REMARK SMILES IDX 3 1 11 2 12 3 10 4 9 5 8 6 6 7 7 8 2 10 1 11 4 12 5 13
REMARK H PARENT 10 9
ROOT
ATOM      1  C   UNL     1      -0.137   0.023   0.068  1.00  0.00     0.111 C 
ATOM      2  C   UNL     1       0.694  -0.544  -1.084  1.00  0.00     0.237 C 
ATOM      3  O   UNL     1       0.209  -1.169  -2.026  1.00  0.00    -0.274 OA
ATOM      4  N   UNL     1       2.054  -0.403  -1.003  1.00  0.00    -0.332 N 
ATOM      5  C   UNL     1       2.718   0.381  -0.107  1.00  0.00     0.089 C 
ATOM      6  C   UNL     1       2.089   1.125   0.801  1.00  0.00     0.066 C 
ATOM      7  C   UNL     1       0.614   1.086   0.870  1.00  0.00     0.172 C 
ATOM      8  O   UNL     1       0.053   1.872   1.634  1.00  0.00    -0.294 OA
ATOM      9  H   UNL     1       2.571  -0.864  -1.746  1.00  0.00     0.169 HD
ENDROOT
BRANCH   1  10
ATOM     10  C   UNL     1      -0.400  -1.128   1.085  1.00  0.00     0.022 C 
ATOM     11  C   UNL     1      -1.332  -2.240   0.617  1.00  0.00     0.005 C 
ENDBRANCH   1  10
BRANCH   1  12
ATOM     12  C   UNL     1      -1.459   0.615  -0.478  1.00  0.00     0.022 C 
ATOM     13  C   UNL     1      -1.272   1.818  -1.400  1.00  0.00     0.005 C 
ENDBRANCH   1  12
TORSDOF 2
