REMARK SMILES CCc1nc(N)nc(N)c1-c1ccc(Cl)cc1
REMARK SMILES IDX 3 1 4 2 5 3 7 4 8 5 10 6 2 7 1 8 11 9 12 10 17 11 13 12
REMARK SMILES IDX 16 13 14 14 15 15 6 16 9 19
REMARK H PARENT 6 17 6 18 9 20 9 21
ROOT
ATOM      1  C   UNL     1      -1.380   0.064  -0.427  1.00  0.00     0.056 A 
ATOM      2  N   UNL     1      -2.643  -0.406  -0.305  1.00  0.00    -0.218 NA
ATOM      3  C   UNL     1      -2.814  -1.536   0.381  1.00  0.00     0.222 A 
ATOM      4  N   UNL     1      -1.833  -2.253   0.921  1.00  0.00    -0.196 NA
ATOM      5  C   UNL     1      -0.585  -1.781   0.795  1.00  0.00     0.137 A 
ATOM      6  C   UNL     1      -0.281  -0.593   0.123  1.00  0.00     0.046 A 
ENDROOT
BRANCH   1   7
ATOM      7  C   UNL     1      -1.264   1.369  -1.178  1.00  0.00     0.054 C 
ATOM      8  C   UNL     1      -1.482   2.567  -0.266  1.00  0.00     0.011 C 
ENDBRANCH   1   7
BRANCH   6   9
ATOM      9  C   UNL     1       1.095  -0.094   0.007  1.00  0.00    -0.013 A 
ATOM     10  C   UNL     1       1.896  -0.448  -1.092  1.00  0.00     0.010 A 
ATOM     11  C   UNL     1       1.643   0.736   0.999  1.00  0.00     0.010 A 
ATOM     12  C   UNL     1       3.209   0.019  -1.198  1.00  0.00     0.021 A 
ATOM     13  C   UNL     1       2.956   1.204   0.893  1.00  0.00     0.021 A 
ATOM     14  C   UNL     1       3.733   0.843  -0.205  1.00  0.00     0.041 A 
ATOM     15  Cl  UNL     1       5.348   1.419  -0.336  1.00  0.00    -0.084 Cl
ENDBRANCH   6   9
BRANCH   3  16
ATOM     16  N   UNL     1      -4.099  -2.022   0.498  1.00  0.00    -0.368 N 
ATOM     17  H   UNL     1      -4.065  -3.019   0.655  1.00  0.00     0.159 HD
ATOM     18  H   UNL     1      -4.662  -1.687  -0.271  1.00  0.00     0.159 HD
ENDBRANCH   3  16
BRANCH   5  19
ATOM     19  N   UNL     1       0.426  -2.559   1.392  1.00  0.00    -0.383 N 
ATOM     20  H   UNL     1       1.114  -2.816   0.691  1.00  0.00     0.158 HD
ATOM     21  H   UNL     1       0.906  -2.003   2.094  1.00  0.00     0.158 HD
ENDBRANCH   5  19
TORSDOF 4
