REMARK SMILES OCCOCCN1CCN(C2=Nc3ccccc3Sc3ccccc32)CC1
REMARK SMILES IDX 3 1 2 2 1 3 4 5 5 6 6 7 7 8 8 9 27 10 9 11 26 12 10 13 11 14
REMARK SMILES IDX 12 15 25 16 13 17 24 18 20 19 14 20 18 21 23 22 19 23 21 24
REMARK SMILES IDX 15 25 17 26 22 27 16 28
REMARK H PARENT 1 4
ROOT
ATOM      1  C   UNL     1       3.084  -2.161   0.805  1.00  0.00     0.188 C 
ENDROOT
BRANCH   1   2
ATOM      2  C   UNL     1       4.330  -2.704   1.505  1.00  0.00     0.184 C 
BRANCH   2   3
ATOM      3  O   UNL     1       4.028  -3.850   2.294  1.00  0.00    -0.394 OA
ATOM      4  H   UNL     1       3.391  -3.578   2.976  1.00  0.00     0.210 HD
ENDBRANCH   2   3
ENDBRANCH   1   2
BRANCH   1   5
ATOM      5  O   UNL     1       3.369  -1.012   0.005  1.00  0.00    -0.378 OA
BRANCH   5   6
ATOM      6  C   UNL     1       3.481   0.193   0.768  1.00  0.00     0.175 C 
BRANCH   6   7
ATOM      7  C   UNL     1       3.587   1.413  -0.169  1.00  0.00     0.113 C 
BRANCH   7   8
ATOM      8  N   UNL     1       2.360   1.915  -0.817  1.00  0.00    -0.298 NA
ATOM      9  C   UNL     1       1.680   0.880  -1.628  1.00  0.00     0.106 C 
ATOM     10  C   UNL     1       1.407   2.509   0.147  1.00  0.00     0.106 C 
ATOM     11  C   UNL     1       0.419   1.431  -2.333  1.00  0.00     0.133 C 
ATOM     12  C   UNL     1       0.132   3.045  -0.548  1.00  0.00     0.133 C 
ATOM     13  N   UNL     1      -0.530   1.972  -1.329  1.00  0.00    -0.354 N 
ATOM     14  C   UNL     1      -1.383   1.084  -0.650  1.00  0.00     0.137 C 
ATOM     15  N   UNL     1      -1.485   1.172   0.650  1.00  0.00    -0.230 NA
ATOM     16  C   UNL     1      -2.151   0.101  -1.484  1.00  0.00     0.031 A 
ATOM     17  C   UNL     1      -2.289   0.341   1.450  1.00  0.00     0.079 A 
ATOM     18  C   UNL     1      -2.854   0.598  -2.592  1.00  0.00     0.013 A 
ATOM     19  C   UNL     1      -2.127  -1.277  -1.226  1.00  0.00     0.023 A 
ATOM     20  C   UNL     1      -3.090   0.975   2.408  1.00  0.00     0.029 A 
ATOM     21  C   UNL     1      -2.254  -1.065   1.429  1.00  0.00     0.038 A 
ATOM     22  C   UNL     1      -3.528  -0.274  -3.446  1.00  0.00     0.001 A 
ATOM     23  S   UNL     1      -1.308  -1.964   0.204  1.00  0.00    -0.087 SA
ATOM     24  C   UNL     1      -2.800  -2.144  -2.096  1.00  0.00     0.016 A 
ATOM     25  C   UNL     1      -3.854   0.239   3.316  1.00  0.00     0.002 A 
ATOM     26  C   UNL     1      -3.017  -1.803   2.346  1.00  0.00     0.018 A 
ATOM     27  C   UNL     1      -3.497  -1.645  -3.200  1.00  0.00     0.001 A 
ATOM     28  C   UNL     1      -3.816  -1.151   3.286  1.00  0.00     0.001 A 
ENDBRANCH   7   8
ENDBRANCH   6   7
ENDBRANCH   5   6
ENDBRANCH   1   5
TORSDOF 6
