REMARK SMILES CCC1NC(=O)c2cc(S(N)(=O)=O)c(Cl)cc2N1
REMARK SMILES IDX 3 1 4 2 5 3 6 4 7 5 8 6 9 7 14 8 15 9 16 10 17 11 18 12 2 15
REMARK SMILES IDX 1 16 10 17 12 18 13 19 11 20
REMARK H PARENT 4 13 18 14 11 21 11 22
ROOT
ATOM      1  C   UNL     1      -2.368   0.484  -0.460  1.00  0.00     0.175 C 
ATOM      2  N   UNL     1      -1.864  -0.246  -1.586  1.00  0.00    -0.332 N 
ATOM      3  C   UNL     1      -0.536  -0.203  -1.916  1.00  0.00     0.255 C 
ATOM      4  O   UNL     1      -0.144  -0.456  -3.048  1.00  0.00    -0.269 OA
ATOM      5  C   UNL     1       0.396   0.141  -0.823  1.00  0.00     0.064 A 
ATOM      6  C   UNL     1       1.772   0.211  -1.055  1.00  0.00     0.039 A 
ATOM      7  C   UNL     1       2.640   0.468   0.014  1.00  0.00     0.101 A 
ATOM      8  C   UNL     1       2.127   0.639   1.302  1.00  0.00     0.063 A 
ATOM      9  Cl  UNL     1       3.107   0.888   2.701  1.00  0.00    -0.083 Cl
ATOM     10  C   UNL     1       0.741   0.569   1.514  1.00  0.00     0.048 A 
ATOM     11  C   UNL     1      -0.143   0.360   0.450  1.00  0.00     0.050 A 
ATOM     12  N   UNL     1      -1.519   0.221   0.691  1.00  0.00    -0.365 N 
ATOM     13  H   UNL     1      -2.462  -0.360  -2.392  1.00  0.00     0.165 HD
ATOM     14  H   UNL     1      -1.823   0.722   1.522  1.00  0.00     0.162 HD
ENDROOT
BRANCH   1  15
ATOM     15  C   UNL     1      -3.824   0.120  -0.145  1.00  0.00     0.044 C 
ATOM     16  C   UNL     1      -4.043  -1.350   0.200  1.00  0.00     0.008 C 
ENDBRANCH   1  15
BRANCH   7  17
ATOM     17  S   UNL     1       4.372   0.589  -0.325  1.00  0.00     0.239 S 
ATOM     18  O   UNL     1       4.844   1.853   0.184  1.00  0.00    -0.207 OA
ATOM     19  O   UNL     1       4.591   0.191  -1.698  1.00  0.00    -0.207 OA
BRANCH  17  20
ATOM     20  N   UNL     1       5.048  -0.654   0.581  1.00  0.00    -0.225 NA
ATOM     21  H   UNL     1       5.417  -1.373  -0.043  1.00  0.00     0.137 HD
ATOM     22  H   UNL     1       4.450  -1.023   1.317  1.00  0.00     0.137 HD
ENDBRANCH  17  20
ENDBRANCH   7  17
TORSDOF 3
