REMARK SMILES CCOC(=O)[C@H](CCc1ccccc1)N[C@@H](C)C(=O)N1Cc2ccccc2C[C@H]1C(=O)O
REMARK SMILES IDX 15 1 6 3 4 4 5 5 3 6 2 7 1 8 7 9 8 10 9 11 10 12 14 13 11 14
REMARK SMILES IDX 13 15 12 16 16 17 17 18 18 19 19 20 20 21 21 22 29 23 22 24
REMARK SMILES IDX 28 25 23 26 27 27 24 28 26 29 25 30 30 31 31 32 32 33
REMARK H PARENT 15 2 32 34
ROOT
ATOM      1  N   UNL     1      -1.382  -0.929  -1.193  1.00  0.00    -0.293 NA
ATOM      2  H   UNL     1      -1.397  -0.057  -1.732  1.00  0.00     0.124 HD
ENDROOT
BRANCH   1   3
ATOM      3  C   UNL     1      -2.580  -1.015  -0.325  1.00  0.00     0.165 C 
BRANCH   3   4
ATOM      4  C   UNL     1      -2.801  -2.455   0.167  1.00  0.00     0.323 C 
ATOM      5  O   UNL     1      -2.982  -2.749   1.345  1.00  0.00    -0.250 OA
BRANCH   4   6
ATOM      6  O   UNL     1      -2.769  -3.354  -0.860  1.00  0.00    -0.465 OA
BRANCH   6   7
ATOM      7  C   UNL     1      -2.902  -4.722  -0.461  1.00  0.00     0.229 C 
ATOM      8  C   UNL     1      -2.620  -5.595  -1.671  1.00  0.00     0.049 C 
ENDBRANCH   6   7
ENDBRANCH   4   6
ENDBRANCH   3   4
BRANCH   3   9
ATOM      9  C   UNL     1      -3.856  -0.537  -1.046  1.00  0.00     0.036 C 
BRANCH   9  10
ATOM     10  C   UNL     1      -3.853   0.949  -1.441  1.00  0.00     0.038 C 
BRANCH  10  11
ATOM     11  C   UNL     1      -3.594   1.882  -0.279  1.00  0.00    -0.048 A 
ATOM     12  C   UNL     1      -4.547   2.038   0.738  1.00  0.00     0.004 A 
ATOM     13  C   UNL     1      -2.382   2.582  -0.190  1.00  0.00     0.004 A 
ATOM     14  C   UNL     1      -4.286   2.867   1.831  1.00  0.00     0.000 A 
ATOM     15  C   UNL     1      -2.121   3.409   0.905  1.00  0.00     0.000 A 
ATOM     16  C   UNL     1      -3.073   3.550   1.915  1.00  0.00     0.000 A 
ENDBRANCH  10  11
ENDBRANCH   9  10
ENDBRANCH   3   9
ENDBRANCH   1   3
BRANCH   1  17
ATOM     17  C   UNL     1      -0.111  -0.937  -0.424  1.00  0.00     0.141 C 
ATOM     18  C   UNL     1       0.526  -2.319  -0.531  1.00  0.00     0.035 C 
BRANCH  17  19
ATOM     19  C   UNL     1       0.840   0.141  -1.026  1.00  0.00     0.240 C 
ATOM     20  O   UNL     1       0.525   0.731  -2.067  1.00  0.00    -0.273 OA
BRANCH  19  21
ATOM     21  N   UNL     1       2.042   0.409  -0.374  1.00  0.00    -0.323 N 
ATOM     22  C   UNL     1       2.908   1.398  -1.016  1.00  0.00     0.156 C 
ATOM     23  C   UNL     1       2.243   0.207   1.077  1.00  0.00     0.199 C 
ATOM     24  C   UNL     1       4.314   1.447  -0.466  1.00  0.00    -0.025 A 
ATOM     25  C   UNL     1       3.699  -0.165   1.380  1.00  0.00     0.073 C 
ATOM     26  C   UNL     1       5.271   2.248  -1.114  1.00  0.00     0.006 A 
ATOM     27  C   UNL     1       4.691   0.730   0.683  1.00  0.00    -0.040 A 
ATOM     28  C   UNL     1       6.583   2.317  -0.642  1.00  0.00     0.000 A 
ATOM     29  C   UNL     1       6.013   0.790   1.140  1.00  0.00     0.004 A 
ATOM     30  C   UNL     1       6.955   1.583   0.482  1.00  0.00     0.000 A 
BRANCH  23  31
ATOM     31  C   UNL     1       1.787   1.431   1.893  1.00  0.00     0.326 C 
ATOM     32  O   UNL     1       1.324   2.479   1.468  1.00  0.00    -0.250 OA
BRANCH  31  33
ATOM     33  O   UNL     1       1.880   1.230   3.227  1.00  0.00    -0.480 OA
ATOM     34  H   UNL     1       1.537   2.065   3.619  1.00  0.00     0.296 HD
ENDBRANCH  31  33
ENDBRANCH  23  31
ENDBRANCH  19  21
ENDBRANCH  17  19
ENDBRANCH   1  17
TORSDOF 12
