REMARK SMILES C=CC[N+]1([C@H]2C[C@H]3[C@@H]4CC[C@H]5C[C@H](OC(C)=O)[C@@H](N6CCCCC6)C[C@]5(C)[C@H]4CC[C@]3(C)[C@H]2OC(=O)CC)CCCCC1
REMARK SMILES IDX 33 1 5 2 6 3 7 4 8 5 9 6 10 7 11 8 12 9 13 10 18 11 25 12
REMARK SMILES IDX 26 13 27 14 28 15 29 16 30 17 31 18 32 19 34 20 35 21 36 22
REMARK SMILES IDX 37 23 38 24 4 25 39 26 43 27 40 28 42 29 41 30 3 31 2 32
REMARK SMILES IDX 1 33 19 34 20 35 24 36 21 37 23 38 22 39 14 40 15 41 17 42
REMARK SMILES IDX 16 43
REMARK H PARENT
ROOT
ATOM      1  C   UNL     1      -3.289  -0.066  -1.102  1.00  0.00     0.240 C 
ATOM      2  C   UNL     1      -3.750   0.892   0.067  1.00  0.00     0.228 C 
ATOM      3  C   UNL     1      -2.724   0.694   1.207  1.00  0.00     0.073 C 
ATOM      4  C   UNL     1      -1.461   0.399   0.401  1.00  0.00     0.008 C 
ATOM      5  C   UNL     1      -0.161   0.018   1.117  1.00  0.00    -0.003 C 
ATOM      6  C   UNL     1       0.222   1.057   2.178  1.00  0.00     0.004 C 
ATOM      7  C   UNL     1       1.580   0.762   2.805  1.00  0.00     0.004 C 
ATOM      8  C   UNL     1       2.677   0.645   1.738  1.00  0.00    -0.001 C 
ATOM      9  C   UNL     1       4.053   0.453   2.393  1.00  0.00     0.051 C 
ATOM     10  C   UNL     1       5.159   0.000   1.419  1.00  0.00     0.194 C 
ATOM     11  C   UNL     1       4.807   0.364  -0.056  1.00  0.00     0.098 C 
ATOM     12  C   UNL     1       3.479  -0.358  -0.446  1.00  0.00     0.030 C 
ATOM     13  C   UNL     1       2.372  -0.431   0.662  1.00  0.00    -0.025 C 
ATOM     14  C   UNL     1       2.381  -1.856   1.278  1.00  0.00     0.012 C 
ATOM     15  C   UNL     1       0.960  -0.120   0.035  1.00  0.00    -0.001 C 
ATOM     16  C   UNL     1       0.541  -1.087  -1.108  1.00  0.00     0.005 C 
ATOM     17  C   UNL     1      -0.845  -0.768  -1.702  1.00  0.00     0.011 C 
ATOM     18  C   UNL     1      -1.928  -0.669  -0.612  1.00  0.00     0.014 C 
ATOM     19  C   UNL     1      -2.132  -2.077   0.009  1.00  0.00     0.016 C 
ENDROOT
BRANCH   1  20
ATOM     20  O   UNL     1      -4.241  -1.092  -1.415  1.00  0.00    -0.455 OA
BRANCH  20  21
ATOM     21  C   UNL     1      -4.227  -1.530  -2.711  1.00  0.00     0.306 C 
ATOM     22  O   UNL     1      -3.565  -1.024  -3.604  1.00  0.00    -0.252 OA
BRANCH  21  23
ATOM     23  C   UNL     1      -5.178  -2.686  -2.884  1.00  0.00     0.119 C 
ATOM     24  C   UNL     1      -4.573  -3.761  -3.766  1.00  0.00     0.016 C 
ENDBRANCH  21  23
ENDBRANCH  20  21
ENDBRANCH   1  20
BRANCH   2  25
ATOM     25  N   UNL     1      -5.246   0.864   0.510  1.00  0.00    -0.315 N 
ATOM     26  C   UNL     1      -5.442   1.915   1.630  1.00  0.00     0.264 C 
ATOM     27  C   UNL     1      -5.666  -0.542   1.007  1.00  0.00     0.264 C 
ATOM     28  C   UNL     1      -6.870   1.944   2.168  1.00  0.00     0.062 C 
ATOM     29  C   UNL     1      -6.407  -0.521   2.340  1.00  0.00     0.062 C 
ATOM     30  C   UNL     1      -7.469   0.561   2.392  1.00  0.00     0.012 C 
BRANCH  25  31
ATOM     31  C   UNL     1      -6.152   1.239  -0.707  1.00  0.00     0.292 C 
BRANCH  31  32
ATOM     32  C   UNL     1      -5.869   2.561  -1.352  1.00  0.00     0.025 C 
ATOM     33  C   UNL     1      -6.659   3.642  -1.271  1.00  0.00     0.010 C 
ENDBRANCH  31  32
ENDBRANCH  25  31
ENDBRANCH   2  25
BRANCH  11  34
ATOM     34  N   UNL     1       5.951   0.095  -0.973  1.00  0.00    -0.297 NA
ATOM     35  C   UNL     1       5.620  -0.403  -2.317  1.00  0.00     0.085 C 
ATOM     36  C   UNL     1       6.885   1.226  -1.069  1.00  0.00     0.085 C 
ATOM     37  C   UNL     1       6.777  -0.298  -3.327  1.00  0.00     0.016 C 
ATOM     38  C   UNL     1       8.248   0.739  -1.577  1.00  0.00     0.016 C 
ATOM     39  C   UNL     1       8.131  -0.358  -2.637  1.00  0.00     0.003 C 
ENDBRANCH  11  34
BRANCH  10  40
ATOM     40  O   UNL     1       6.387   0.630   1.839  1.00  0.00    -0.461 OA
BRANCH  40  41
ATOM     41  C   UNL     1       7.106  -0.033   2.785  1.00  0.00     0.302 C 
ATOM     42  O   UNL     1       6.762  -1.056   3.359  1.00  0.00    -0.253 OA
ATOM     43  C   UNL     1       8.388   0.695   3.050  1.00  0.00     0.139 C 
ENDBRANCH  40  41
ENDBRANCH  10  40
TORSDOF 9
