REMARK SMILES C#CCN[C@@H]1CCc2ccccc21
REMARK SMILES IDX 1 1 2 2 3 3 4 4 5 6 6 7 13 8 7 9 8 10 12 11 9 12 11 13 10 14
REMARK H PARENT 4 5
ROOT
ATOM      1  C   UNL     1       4.328  -0.931  -0.463  1.00  0.00     0.005 C 
ATOM      2  C   UNL     1       3.377  -0.861   0.268  1.00  0.00    -0.091 C 
ATOM      3  C   UNL     1       2.215  -0.779   1.163  1.00  0.00     0.171 C 
ENDROOT
BRANCH   3   4
ATOM      4  N   UNL     1       1.475   0.466   0.987  1.00  0.00    -0.299 NA
ATOM      5  H   UNL     1       0.789   0.542   1.736  1.00  0.00     0.124 HD
BRANCH   4   6
ATOM      6  C   UNL     1       0.774   0.568  -0.297  1.00  0.00     0.085 C 
ATOM      7  C   UNL     1       0.244   2.013  -0.473  1.00  0.00     0.028 C 
ATOM      8  C   UNL     1      -0.534  -0.184  -0.321  1.00  0.00    -0.028 A 
ATOM      9  C   UNL     1      -1.134   2.067   0.201  1.00  0.00     0.038 C 
ATOM     10  C   UNL     1      -1.610   0.666  -0.027  1.00  0.00    -0.043 A 
ATOM     11  C   UNL     1      -0.748  -1.529  -0.583  1.00  0.00     0.005 A 
ATOM     12  C   UNL     1      -2.907   0.187   0.044  1.00  0.00     0.004 A 
ATOM     13  C   UNL     1      -2.055  -2.019  -0.526  1.00  0.00     0.000 A 
ATOM     14  C   UNL     1      -3.125  -1.169  -0.210  1.00  0.00     0.000 A 
ENDBRANCH   4   6
ENDBRANCH   3   4
TORSDOF 2
