REMARK SMILES CCOc1ccccc1O[C@H](c1ccccc1)[C@H]1CNCCO1
REMARK SMILES IDX 4 1 9 2 8 3 7 4 6 5 5 6 3 7 2 8 1 9 10 10 11 11 18 12 19 13
REMARK SMILES IDX 23 14 20 15 22 16 21 17 12 19 13 20 17 21 14 22 16 23 15 24
REMARK H PARENT 20 18
ROOT
ATOM      1  C   UNL     1       2.023  -1.756  -0.044  1.00  0.00     0.161 A 
ATOM      2  C   UNL     1       1.395  -0.727  -0.754  1.00  0.00     0.162 A 
ATOM      3  C   UNL     1       1.234  -0.837  -2.140  1.00  0.00     0.050 A 
ATOM      4  C   UNL     1       1.636  -1.996  -2.805  1.00  0.00     0.004 A 
ATOM      5  C   UNL     1       2.208  -3.046  -2.088  1.00  0.00     0.004 A 
ATOM      6  C   UNL     1       2.397  -2.925  -0.711  1.00  0.00     0.050 A 
ENDROOT
BRANCH   1   7
ATOM      7  O   UNL     1       2.266  -1.750   1.304  1.00  0.00    -0.490 OA
BRANCH   7   8
ATOM      8  C   UNL     1       2.952  -0.578   1.752  1.00  0.00     0.226 C 
ATOM      9  C   UNL     1       3.727  -0.944   3.006  1.00  0.00     0.049 C 
ENDBRANCH   7   8
ENDBRANCH   1   7
BRANCH   2  10
ATOM     10  O   UNL     1       0.966   0.407  -0.113  1.00  0.00    -0.479 OA
BRANCH  10  11
ATOM     11  C   UNL     1      -0.485   0.481  -0.041  1.00  0.00     0.234 C 
BRANCH  11  12
ATOM     12  C   UNL     1      -0.882   0.920   1.401  1.00  0.00     0.177 C 
ATOM     13  C   UNL     1      -2.403   1.118   1.601  1.00  0.00     0.117 C 
ATOM     14  O   UNL     1      -0.345  -0.010   2.375  1.00  0.00    -0.371 OA
ATOM     15  N   UNL     1      -3.183  -0.125   1.464  1.00  0.00    -0.312 NA
ATOM     16  C   UNL     1      -1.312  -0.869   2.984  1.00  0.00     0.176 C 
ATOM     17  C   UNL     1      -2.456  -1.268   2.043  1.00  0.00     0.109 C 
ATOM     18  H   UNL     1      -4.076  -0.004   1.943  1.00  0.00     0.122 HD
ENDBRANCH  11  12
BRANCH  11  19
ATOM     19  C   UNL     1      -0.968   1.479  -1.086  1.00  0.00    -0.005 A 
ATOM     20  C   UNL     1      -2.079   1.172  -1.887  1.00  0.00     0.007 A 
ATOM     21  C   UNL     1      -0.331   2.718  -1.262  1.00  0.00     0.007 A 
ATOM     22  C   UNL     1      -2.540   2.080  -2.841  1.00  0.00     0.000 A 
ATOM     23  C   UNL     1      -0.792   3.624  -2.218  1.00  0.00     0.000 A 
ATOM     24  C   UNL     1      -1.896   3.305  -3.006  1.00  0.00     0.000 A 
ENDBRANCH  11  19
ENDBRANCH  10  11
ENDBRANCH   2  10
TORSDOF 6
