REMARK SMILES CCC(CC)COC(=O)[C@H](C)N[P@](=O)(OC[C@H]1O[C@@](C#N)(c2ccc3c(N)ncnn23)[C@H](O)[C@@H]1O)Oc1ccccc1
REMARK SMILES IDX 10 1 11 2 8 3 9 4 7 5 6 6 3 7 2 8 1 9 4 10 5 11 12 12 13 14
REMARK SMILES IDX 14 15 15 16 16 17 17 18 18 19 34 20 19 21 32 22 20 23 21 24
REMARK SMILES IDX 35 25 22 27 23 28 31 29 24 30 25 31 30 32 26 33 29 34 28 35
REMARK SMILES IDX 27 36 33 39 36 41 37 42 38 43 42 44 39 45 41 46 40 47
REMARK H PARENT 12 13 35 26 27 37 27 38 33 40
ROOT
ATOM      1  C   UNL     1      -2.696   0.067  -2.118  1.00  0.00     0.172 C 
ATOM      2  C   UNL     1      -3.725  -0.981  -2.548  1.00  0.00     0.037 C 
ENDROOT
BRANCH   1   3
ATOM      3  C   UNL     1      -2.979   0.749  -0.763  1.00  0.00     0.323 C 
ATOM      4  O   UNL     1      -2.165   1.464  -0.192  1.00  0.00    -0.250 OA
BRANCH   3   5
ATOM      5  O   UNL     1      -4.244   0.504  -0.335  1.00  0.00    -0.464 OA
BRANCH   5   6
ATOM      6  C   UNL     1      -4.620   1.030   0.950  1.00  0.00     0.236 C 
BRANCH   6   7
ATOM      7  C   UNL     1      -6.000   1.699   0.832  1.00  0.00     0.026 C 
BRANCH   7   8
ATOM      8  C   UNL     1      -5.994   2.857  -0.193  1.00  0.00     0.003 C 
ATOM      9  C   UNL     1      -5.150   4.067   0.193  1.00  0.00     0.004 C 
ENDBRANCH   7   8
BRANCH   7  10
ATOM     10  C   UNL     1      -6.539   2.165   2.200  1.00  0.00     0.003 C 
ATOM     11  C   UNL     1      -6.850   1.020   3.154  1.00  0.00     0.004 C 
ENDBRANCH   7  10
ENDBRANCH   6   7
ENDBRANCH   5   6
ENDBRANCH   3   5
ENDBRANCH   1   3
BRANCH   1  12
ATOM     12  N   UNL     1      -1.335  -0.495  -2.132  1.00  0.00    -0.198 NA
ATOM     13  H   UNL     1      -1.123  -0.834  -3.065  1.00  0.00     0.137 HD
BRANCH  12  14
ATOM     14  P   UNL     1      -0.943  -1.619  -1.001  1.00  0.00     0.459 P 
ATOM     15  O   UNL     1      -1.981  -1.860   0.055  1.00  0.00    -0.229 OA
BRANCH  14  16
ATOM     16  O   UNL     1       0.492  -1.224  -0.387  1.00  0.00    -0.285 OA
BRANCH  16  17
ATOM     17  C   UNL     1       1.472  -0.603  -1.191  1.00  0.00     0.208 C 
BRANCH  17  18
ATOM     18  C   UNL     1       2.873  -1.140  -0.912  1.00  0.00     0.178 C 
ATOM     19  O   UNL     1       3.835  -0.307  -1.598  1.00  0.00    -0.344 OA
ATOM     20  C   UNL     1       3.273  -1.169   0.558  1.00  0.00     0.179 C 
ATOM     21  C   UNL     1       4.959  -0.066  -0.702  1.00  0.00     0.225 C 
ATOM     22  C   UNL     1       4.789  -1.076   0.455  1.00  0.00     0.198 C 
ATOM     23  C   UNL     1       6.235  -0.266  -1.427  1.00  0.00     0.107 C 
ATOM     24  N   UNL     1       7.250  -0.433  -1.965  1.00  0.00    -0.195 NA
BRANCH  20  25
ATOM     25  O   UNL     1       2.884  -2.365   1.222  1.00  0.00    -0.387 OA
ATOM     26  H   UNL     1       3.513  -3.053   0.926  1.00  0.00     0.211 HD
ENDBRANCH  20  25
BRANCH  21  27
ATOM     27  C   UNL     1       4.840   1.374  -0.258  1.00  0.00     0.092 A 
ATOM     28  C   UNL     1       3.957   2.383  -0.621  1.00  0.00     0.030 A 
ATOM     29  N   UNL     1       5.725   1.925   0.642  1.00  0.00    -0.228 N 
ATOM     30  C   UNL     1       4.314   3.554   0.095  1.00  0.00     0.034 A 
ATOM     31  C   UNL     1       5.418   3.233   0.850  1.00  0.00     0.107 A 
ATOM     32  N   UNL     1       6.744   1.285   1.238  1.00  0.00    -0.156 NA
ATOM     33  C   UNL     1       6.241   3.973   1.746  1.00  0.00     0.151 C 
ATOM     34  C   UNL     1       7.450   2.034   2.026  1.00  0.00     0.247 C 
ATOM     35  N   UNL     1       7.239   3.364   2.305  1.00  0.00    -0.216 NA
ATOM     36  N   UNL     1       6.035   5.288   2.035  1.00  0.00    -0.382 N 
ATOM     37  H   UNL     1       6.793   5.751   2.527  1.00  0.00     0.158 HD
ATOM     38  H   UNL     1       5.534   5.856   1.366  1.00  0.00     0.158 HD
ENDBRANCH  21  27
BRANCH  22  39
ATOM     39  O   UNL     1       5.259  -2.410   0.142  1.00  0.00    -0.386 OA
ATOM     40  H   UNL     1       6.232  -2.408   0.244  1.00  0.00     0.211 HD
ENDBRANCH  22  39
ENDBRANCH  17  18
ENDBRANCH  16  17
ENDBRANCH  14  16
BRANCH  14  41
ATOM     41  O   UNL     1      -0.587  -2.935  -1.879  1.00  0.00    -0.413 OA
BRANCH  41  42
ATOM     42  C   UNL     1      -0.484  -4.157  -1.279  1.00  0.00     0.130 A 
ATOM     43  C   UNL     1       0.766  -4.770  -1.200  1.00  0.00     0.047 A 
ATOM     44  C   UNL     1      -1.627  -4.806  -0.815  1.00  0.00     0.047 A 
ATOM     45  C   UNL     1       0.877  -6.032  -0.614  1.00  0.00     0.004 A 
ATOM     46  C   UNL     1      -1.514  -6.068  -0.233  1.00  0.00     0.004 A 
ATOM     47  C   UNL     1      -0.261  -6.678  -0.125  1.00  0.00     0.000 A 
ENDBRANCH  41  42
ENDBRANCH  14  41
ENDBRANCH  12  14
ENDBRANCH   1  12
TORSDOF 16
