REMARK SMILES CCOc1cc(CC(=O)N[C@@H](CC(C)C)c2ccccc2N2CCCCC2)ccc1C(=O)O
REMARK SMILES IDX 8 1 9 2 10 3 7 5 6 6 4 7 30 8 5 9 29 10 28 11 3 12 2 13 1 14
REMARK SMILES IDX 31 15 32 16 33 17 11 19 12 20 13 21 14 22 15 23 16 24 21 25
REMARK SMILES IDX 17 26 20 27 18 28 19 29 22 30 23 31 27 32 24 33 26 34 25 35
REMARK H PARENT 10 4 33 18
ROOT
ATOM      1  C   UNL     1       0.482   0.518   1.875  1.00  0.00     0.224 C 
ATOM      2  O   UNL     1       0.890  -0.033   2.893  1.00  0.00    -0.275 OA
ATOM      3  N   UNL     1      -0.440  -0.044   1.027  1.00  0.00    -0.349 N 
ATOM      4  H   UNL     1      -0.897   0.516   0.314  1.00  0.00     0.164 HD
ENDROOT
BRANCH   1   5
ATOM      5  C   UNL     1       0.959   1.892   1.441  1.00  0.00     0.135 C 
BRANCH   5   6
ATOM      6  C   UNL     1       2.427   1.925   1.103  1.00  0.00    -0.035 A 
ATOM      7  C   UNL     1       4.232   1.640  -0.507  1.00  0.00     0.134 A 
ATOM      8  C   UNL     1       5.172   2.011   0.463  1.00  0.00     0.101 A 
ATOM      9  C   UNL     1       2.867   1.612  -0.191  1.00  0.00     0.051 A 
ATOM     10  C   UNL     1       4.732   2.316   1.760  1.00  0.00     0.020 A 
ATOM     11  C   UNL     1       3.373   2.262   2.079  1.00  0.00     0.005 A 
BRANCH   7  12
ATOM     12  O   UNL     1       4.589   1.397  -1.809  1.00  0.00    -0.493 OA
BRANCH  12  13
ATOM     13  C   UNL     1       4.598  -0.011  -2.075  1.00  0.00     0.226 C 
ATOM     14  C   UNL     1       5.211  -0.218  -3.447  1.00  0.00     0.049 C 
ENDBRANCH  12  13
ENDBRANCH   7  12
BRANCH   8  15
ATOM     15  C   UNL     1       6.628   2.130   0.218  1.00  0.00     0.339 C 
ATOM     16  O   UNL     1       7.387   2.835   0.863  1.00  0.00    -0.246 OA
BRANCH  15  17
ATOM     17  O   UNL     1       7.096   1.329  -0.752  1.00  0.00    -0.478 OA
ATOM     18  H   UNL     1       8.061   1.510  -0.747  1.00  0.00     0.297 HD
ENDBRANCH  15  17
ENDBRANCH   8  15
ENDBRANCH   5   6
ENDBRANCH   1   5
BRANCH   3  19
ATOM     19  C   UNL     1      -1.134  -1.289   1.308  1.00  0.00     0.114 C 
BRANCH  19  20
ATOM     20  C   UNL     1      -2.298  -1.020   2.291  1.00  0.00     0.033 C 
BRANCH  20  21
ATOM     21  C   UNL     1      -2.976  -2.267   2.893  1.00  0.00    -0.015 C 
ATOM     22  C   UNL     1      -4.196  -1.841   3.718  1.00  0.00     0.007 C 
ATOM     23  C   UNL     1      -2.022  -3.074   3.778  1.00  0.00     0.007 C 
ENDBRANCH  20  21
ENDBRANCH  19  20
BRANCH  19  24
ATOM     24  C   UNL     1      -1.600  -1.948   0.009  1.00  0.00    -0.002 A 
ATOM     25  C   UNL     1      -2.168  -1.239  -1.080  1.00  0.00     0.042 A 
ATOM     26  C   UNL     1      -1.474  -3.351  -0.085  1.00  0.00     0.008 A 
ATOM     27  C   UNL     1      -2.626  -1.969  -2.195  1.00  0.00     0.026 A 
ATOM     28  C   UNL     1      -1.917  -4.048  -1.207  1.00  0.00     0.001 A 
ATOM     29  C   UNL     1      -2.498  -3.357  -2.260  1.00  0.00     0.002 A 
BRANCH  25  30
ATOM     30  N   UNL     1      -2.269   0.178  -1.047  1.00  0.00    -0.371 N 
ATOM     31  C   UNL     1      -3.668   0.624  -0.957  1.00  0.00     0.116 C 
ATOM     32  C   UNL     1      -1.515   0.831  -2.144  1.00  0.00     0.116 C 
ATOM     33  C   UNL     1      -3.681   2.081  -0.490  1.00  0.00     0.021 C 
ATOM     34  C   UNL     1      -1.943   2.294  -2.322  1.00  0.00     0.021 C 
ATOM     35  C   UNL     1      -2.512   2.901  -1.045  1.00  0.00     0.004 C 
ENDBRANCH  25  30
ENDBRANCH  19  24
ENDBRANCH   3  19
TORSDOF 11
