REMARK SMILES CCC1(C2=CC3CCC(C2)C3)C(=O)NC(=O)NC1=O
REMARK SMILES IDX 3 1 12 2 13 3 14 4 15 5 16 6 17 7 18 8 19 9 2 12 1 13 4 14
REMARK SMILES IDX 5 15 10 16 6 17 9 18 7 19 11 20 8 21
REMARK H PARENT 14 10 17 11
ROOT
ATOM      1  C   UNL     1      -1.379   0.043  -0.005  1.00  0.00     0.149 C 
ATOM      2  C   UNL     1      -2.067  -0.854  -1.046  1.00  0.00     0.247 C 
ATOM      3  O   UNL     1      -1.774  -0.874  -2.242  1.00  0.00    -0.273 OA
ATOM      4  N   UNL     1      -3.105  -1.630  -0.606  1.00  0.00    -0.277 N 
ATOM      5  C   UNL     1      -3.384  -1.928   0.688  1.00  0.00     0.328 C 
ATOM      6  O   UNL     1      -4.127  -2.857   0.985  1.00  0.00    -0.248 OA
ATOM      7  N   UNL     1      -2.749  -1.197   1.638  1.00  0.00    -0.277 N 
ATOM      8  C   UNL     1      -1.602  -0.485   1.421  1.00  0.00     0.247 C 
ATOM      9  O   UNL     1      -0.845  -0.267   2.367  1.00  0.00    -0.273 OA
ATOM     10  H   UNL     1      -3.527  -2.232  -1.300  1.00  0.00     0.174 HD
ATOM     11  H   UNL     1      -2.867  -1.538   2.583  1.00  0.00     0.174 HD
ENDROOT
BRANCH   1  12
ATOM     12  C   UNL     1      -2.121   1.411  -0.109  1.00  0.00     0.028 C 
ATOM     13  C   UNL     1      -1.778   2.442   0.965  1.00  0.00     0.006 C 
ENDBRANCH   1  12
BRANCH   1  14
ATOM     14  C   UNL     1       0.130   0.039  -0.331  1.00  0.00    -0.049 C 
ATOM     15  C   UNL     1       0.828   1.104  -0.787  1.00  0.00    -0.023 C 
ATOM     16  C   UNL     1       0.867  -1.295  -0.162  1.00  0.00     0.036 C 
ATOM     17  C   UNL     1       2.304   1.019  -1.113  1.00  0.00     0.012 C 
ATOM     18  C   UNL     1       2.392  -1.208  -0.404  1.00  0.00    -0.006 C 
ATOM     19  C   UNL     1       3.111   1.059   0.190  1.00  0.00     0.008 C 
ATOM     20  C   UNL     1       2.645  -0.369  -1.655  1.00  0.00     0.011 C 
ATOM     21  C   UNL     1       3.098  -0.392   0.698  1.00  0.00     0.004 C 
ENDBRANCH   1  14
TORSDOF 2
