REMARK SMILES CCOC(=O)Nc1ccc(NCc2ccc(F)cc2)cc1N
REMARK SMILES IDX 7 1 21 2 20 3 10 4 9 5 8 6 6 7 4 8 5 9 3 11 2 12 1 13 22 14
REMARK SMILES IDX 11 17 12 19 13 20 14 21 19 22 15 23 18 24 16 25 17 26
REMARK H PARENT 6 10 22 15 22 16 11 18
ROOT
ATOM      1  C   UNL     1       1.491  -0.567  -0.186  1.00  0.00     0.067 A 
ATOM      2  C   UNL     1       0.948  -0.368   1.095  1.00  0.00     0.058 A 
ATOM      3  C   UNL     1      -0.352  -0.845   1.363  1.00  0.00     0.053 A 
ATOM      4  C   UNL     1      -1.176  -1.412   0.382  1.00  0.00     0.036 A 
ATOM      5  C   UNL     1      -0.619  -1.602  -0.879  1.00  0.00     0.028 A 
ATOM      6  C   UNL     1       0.687  -1.182  -1.160  1.00  0.00     0.030 A 
ENDROOT
BRANCH   1   7
ATOM      7  N   UNL     1       2.789  -0.226  -0.626  1.00  0.00    -0.289 N 
ATOM      8  C   UNL     1       3.800   0.450  -0.016  1.00  0.00     0.411 C 
ATOM      9  O   UNL     1       3.824   0.940   1.102  1.00  0.00    -0.224 OA
ATOM     10  H   UNL     1       3.031  -0.479  -1.573  1.00  0.00     0.173 HD
BRANCH   8  11
ATOM     11  O   UNL     1       4.840   0.514  -0.892  1.00  0.00    -0.450 OA
BRANCH  11  12
ATOM     12  C   UNL     1       5.990   1.212  -0.396  1.00  0.00     0.231 C 
ATOM     13  C   UNL     1       7.054   1.198  -1.476  1.00  0.00     0.049 C 
ENDBRANCH  11  12
ENDBRANCH   8  11
ENDBRANCH   1   7
BRANCH   2  14
ATOM     14  N   UNL     1       1.682   0.064   2.219  1.00  0.00    -0.397 N 
ATOM     15  H   UNL     1       2.470   0.662   1.945  1.00  0.00     0.156 HD
ATOM     16  H   UNL     1       2.077  -0.735   2.710  1.00  0.00     0.156 HD
ENDBRANCH   2  14
BRANCH   4  17
ATOM     17  N   UNL     1      -2.442  -1.879   0.748  1.00  0.00    -0.381 N 
ATOM     18  H   UNL     1      -2.737  -1.478   1.636  1.00  0.00     0.160 HD
BRANCH  17  19
ATOM     19  C   UNL     1      -3.543  -1.875  -0.210  1.00  0.00     0.148 C 
BRANCH  19  20
ATOM     20  C   UNL     1      -4.270  -0.548  -0.180  1.00  0.00    -0.029 A 
ATOM     21  C   UNL     1      -5.393  -0.371   0.647  1.00  0.00     0.008 A 
ATOM     22  C   UNL     1      -3.813   0.534  -0.949  1.00  0.00     0.008 A 
ATOM     23  C   UNL     1      -6.053   0.858   0.688  1.00  0.00     0.039 A 
ATOM     24  C   UNL     1      -4.474   1.763  -0.904  1.00  0.00     0.039 A 
ATOM     25  C   UNL     1      -5.588   1.913  -0.088  1.00  0.00     0.123 A 
ATOM     26  F   UNL     1      -6.222   3.092  -0.047  1.00  0.00    -0.207 F 
ENDBRANCH  19  20
ENDBRANCH  17  19
ENDBRANCH   4  17
TORSDOF 7
