REMARK SMILES NC(=O)c1ncn([C@@H]2O[C@H](CO)[C@@H](O)[C@H]2O)n1
REMARK SMILES IDX 8 1 9 2 10 3 13 4 15 5 7 6 4 7 17 8 5 9 6 10 2 11 1 12 3 13
REMARK SMILES IDX 16 16 11 18 12 19 14 21
REMARK H PARENT 1 14 1 15 16 17 12 20 14 22
ROOT
ATOM      1  C   UNL     1       0.375  -0.748  -0.823  1.00  0.00     0.270 C 
ATOM      2  O   UNL     1       1.452  -1.384  -0.103  1.00  0.00    -0.345 OA
ATOM      3  C   UNL     1       2.648  -0.584  -0.291  1.00  0.00     0.178 C 
ATOM      4  C   UNL     1       2.320   0.465  -1.352  1.00  0.00     0.179 C 
ATOM      5  C   UNL     1       0.825   0.662  -1.200  1.00  0.00     0.197 C 
ENDROOT
BRANCH   1   6
ATOM      6  N   UNL     1      -0.833  -0.723  -0.013  1.00  0.00    -0.221 N 
ATOM      7  C   UNL     1      -2.815  -0.309   0.530  1.00  0.00     0.239 A 
ATOM      8  N   UNL     1      -1.947  -0.120  -0.482  1.00  0.00    -0.143 NA
ATOM      9  N   UNL     1      -2.274  -1.007   1.603  1.00  0.00    -0.211 NA
ATOM     10  C   UNL     1      -1.039  -1.244   1.224  1.00  0.00     0.223 A 
BRANCH   7  11
ATOM     11  C   UNL     1      -4.211   0.170   0.526  1.00  0.00     0.288 C 
ATOM     12  N   UNL     1      -4.912  -0.149   1.662  1.00  0.00    -0.363 N 
ATOM     13  O   UNL     1      -4.741   0.801  -0.384  1.00  0.00    -0.266 OA
ATOM     14  H   UNL     1      -4.461  -0.682   2.396  1.00  0.00     0.160 HD
ATOM     15  H   UNL     1      -5.878   0.127   1.736  1.00  0.00     0.160 HD
ENDBRANCH   7  11
ENDBRANCH   1   6
BRANCH   5  16
ATOM     16  O   UNL     1       0.254   1.143  -2.423  1.00  0.00    -0.386 OA
ATOM     17  H   UNL     1      -0.715   1.174  -2.273  1.00  0.00     0.211 HD
ENDBRANCH   5  16
BRANCH   3  18
ATOM     18  C   UNL     1       3.045   0.015   1.062  1.00  0.00     0.191 C 
BRANCH  18  19
ATOM     19  O   UNL     1       2.051   0.921   1.533  1.00  0.00    -0.394 OA
ATOM     20  H   UNL     1       2.322   1.202   2.426  1.00  0.00     0.210 HD
ENDBRANCH  18  19
ENDBRANCH   3  18
BRANCH   4  21
ATOM     21  O   UNL     1       2.587  -0.072  -2.658  1.00  0.00    -0.387 OA
ATOM     22  H   UNL     1       2.002   0.433  -3.262  1.00  0.00     0.211 HD
ENDBRANCH   4  21
TORSDOF 6
