REMARK SMILES N[C@@H]1c2cccnc2[C@H](OC(=O)N2CCC(n3c(=O)[nH]c4ncccc43)CC2)CC[C@H]1c1cccc(F)c1F
REMARK SMILES IDX 9 1 8 2 3 3 4 4 5 5 7 6 6 7 2 8 1 10 29 13 30 14 31 15 32 17
REMARK SMILES IDX 38 18 33 19 36 20 34 21 35 22 39 23 37 24 10 25 11 26 12 27
REMARK SMILES IDX 13 28 14 29 28 30 15 31 27 32 16 33 17 34 18 35 26 36 19 37
REMARK SMILES IDX 20 38 25 39 21 40 24 41 22 42 23 43
REMARK H PARENT 1 11 1 12 20 44
REMARK Flexibility Score:  108.900
ROOT
ATOM      1  C   UNL     1      -1.855  -0.090  -0.373  1.00  0.00     0.227 C 
ENDROOT
BRANCH   1   2
ATOM      2  C   UNL     1      -2.051   0.940  -1.483  1.00  0.00     0.086 A 
ATOM      3  C   UNL     1      -3.317   1.537  -1.659  1.00  0.00    -0.005 A 
ATOM      4  C   UNL     1      -3.464   2.424  -2.733  1.00  0.00     0.009 A 
ATOM      5  C   UNL     1      -2.385   2.694  -3.569  1.00  0.00     0.020 A 
ATOM      6  N   UNL     1      -0.998   1.185  -2.309  1.00  0.00    -0.257 NA
ATOM      7  C   UNL     1      -1.185   2.058  -3.319  1.00  0.00     0.111 A 
BRANCH   3   8
ATOM      8  C   UNL     1      -4.452   1.152  -0.723  1.00  0.00     0.091 CG0
ATOM      9  G   UNL     1      -4.957  -0.308  -0.979  1.00  0.00     0.000 G0
BRANCH   8  10
ATOM     10  N   UNL     1      -5.581   2.096  -0.741  1.00  0.00    -0.323 NA
ATOM     11  H   UNL     1      -6.064   2.054  -1.636  1.00  0.00     0.119 HD
ATOM     12  H   UNL     1      -5.233   3.046  -0.619  1.00  0.00     0.119 HD
ENDBRANCH   8  10
ENDBRANCH   3   8
ENDBRANCH   1   2
BRANCH   1  13
ATOM     13  C   UNL     1      -2.554  -1.417  -0.707  1.00  0.00     0.053 C 
BRANCH  13  14
ATOM     14  C   UNL     1      -3.897  -1.338  -1.444  1.00  0.00     0.014 C 
BRANCH  14  15
ATOM     15  C   UNL     1      -4.957  -0.308  -0.979  1.00  0.00     0.044 CG0
ATOM     16  G   UNL     1      -4.452   1.152  -0.723  1.00  0.00     0.000 G0
BRANCH  15  17
ATOM     17  C   UNL     1      -5.770  -0.866   0.186  1.00  0.00    -0.004 A 
ATOM     18  C   UNL     1      -7.086  -1.302  -0.031  1.00  0.00     0.162 A 
ATOM     19  C   UNL     1      -5.247  -0.974   1.486  1.00  0.00     0.007 A 
ATOM     20  C   UNL     1      -7.851  -1.821   1.009  1.00  0.00     0.159 A 
ATOM     21  C   UNL     1      -6.020  -1.496   2.530  1.00  0.00     0.004 A 
ATOM     22  C   UNL     1      -7.325  -1.921   2.291  1.00  0.00     0.042 A 
ATOM     23  F   UNL     1      -7.622  -1.231  -1.260  1.00  0.00    -0.203 F 
ATOM     24  F   UNL     1      -9.105  -2.235   0.781  1.00  0.00    -0.204 F 
ENDBRANCH  15  17
ENDBRANCH  14  15
ENDBRANCH  13  14
ENDBRANCH   1  13
BRANCH   1  25
ATOM     25  O   UNL     1      -0.463  -0.392  -0.153  1.00  0.00    -0.440 OA
BRANCH  25  26
ATOM     26  C   UNL     1       0.215   0.506   0.607  1.00  0.00     0.410 C 
ATOM     27  O   UNL     1      -0.313   1.448   1.188  1.00  0.00    -0.224 OA
ATOM     28  N   UNL     1       1.569   0.226   0.682  1.00  0.00    -0.308 N 
ATOM     29  C   UNL     1       2.208  -0.860  -0.059  1.00  0.00     0.125 C 
ATOM     30  C   UNL     1       2.406   1.071   1.518  1.00  0.00     0.125 C 
ATOM     31  C   UNL     1       3.556  -0.421  -0.622  1.00  0.00     0.047 C 
ATOM     32  C   UNL     1       3.773   0.457   1.776  1.00  0.00     0.047 C 
ATOM     33  C   UNL     1       4.496   0.158   0.455  1.00  0.00     0.096 C 
BRANCH  33  34
ATOM     34  N   UNL     1       5.663  -0.680   0.683  1.00  0.00    -0.287 N 
ATOM     35  C   UNL     1       5.650  -2.052   1.023  1.00  0.00     0.327 C 
ATOM     36  C   UNL     1       6.991  -0.233   0.766  1.00  0.00     0.089 A 
ATOM     37  O   UNL     1       4.681  -2.787   1.110  1.00  0.00    -0.248 OA
ATOM     38  N   UNL     1       6.976  -2.423   1.256  1.00  0.00    -0.290 N 
ATOM     39  C   UNL     1       7.560   1.006   0.584  1.00  0.00     0.032 A 
ATOM     40  C   UNL     1       7.794  -1.317   1.109  1.00  0.00     0.158 A 
ATOM     41  C   UNL     1       8.945   1.087   0.756  1.00  0.00     0.022 A 
ATOM     42  N   UNL     1       9.117  -1.289   1.286  1.00  0.00    -0.237 NA
ATOM     43  C   UNL     1       9.666  -0.065   1.100  1.00  0.00     0.113 A 
ATOM     44  H   UNL     1       7.290  -3.338   1.528  1.00  0.00     0.173 HD
ENDBRANCH  33  34
ENDBRANCH  25  26
ENDBRANCH   1  25
TORSDOF 5
