REMARK SMILES CCn1c(=O)c(-c2cc(NC(=O)Nc3ccccc3)c(F)cc2Br)cc2cnc(NC)cc21
REMARK SMILES IDX 3 1 33 2 32 3 29 4 28 5 27 6 26 7 25 8 6 9 4 10 5 11 2 12
REMARK SMILES IDX 1 13 7 14 8 15 23 16 9 17 22 18 20 19 24 20 21 21 10 22
REMARK SMILES IDX 11 23 12 24 13 25 14 28 15 29 19 30 16 31 18 32 17 33 30 34
REMARK SMILES IDX 31 35
REMARK H PARENT 10 26 13 27 30 36
ROOT
ATOM      1  N   UNL     1      -3.281   0.885  -0.684  1.00  0.00    -0.308 N 
ATOM      2  C   UNL     1      -3.636  -0.370  -0.093  1.00  0.00     0.056 A 
ATOM      3  C   UNL     1      -4.821  -0.566   0.625  1.00  0.00     0.073 A 
ATOM      4  C   UNL     1      -5.095  -1.812   1.182  1.00  0.00     0.127 A 
ATOM      5  N   UNL     1      -4.268  -2.860   1.043  1.00  0.00    -0.239 NA
ATOM      6  C   UNL     1      -3.129  -2.663   0.343  1.00  0.00     0.123 A 
ATOM      7  C   UNL     1      -2.768  -1.453  -0.238  1.00  0.00     0.018 A 
ATOM      8  C   UNL     1      -1.528  -1.318  -0.988  1.00  0.00     0.026 C 
ATOM      9  C   UNL     1      -1.212  -0.151  -1.567  1.00  0.00     0.049 C 
ATOM     10  C   UNL     1      -2.116   1.040  -1.438  1.00  0.00     0.258 C 
ATOM     11  O   UNL     1      -1.803   2.098  -1.987  1.00  0.00    -0.269 OA
ENDROOT
BRANCH   1  12
ATOM     12  C   UNL     1      -4.164   2.045  -0.575  1.00  0.00     0.122 C 
ATOM     13  C   UNL     1      -5.218   2.068  -1.673  1.00  0.00     0.028 C 
ENDBRANCH   1  12
BRANCH   9  14
ATOM     14  C   UNL     1       0.038  -0.049  -2.344  1.00  0.00     0.004 A 
ATOM     15  C   UNL     1       1.249   0.102  -1.639  1.00  0.00     0.039 A 
ATOM     16  C   UNL     1       0.062  -0.086  -3.749  1.00  0.00     0.029 A 
ATOM     17  C   UNL     1       2.462   0.216  -2.320  1.00  0.00     0.079 A 
ATOM     18  C   UNL     1       1.268   0.043  -4.437  1.00  0.00     0.057 A 
ATOM     19  C   UNL     1       2.448   0.198  -3.719  1.00  0.00     0.147 A 
ATOM     20  Br  UNL     1      -1.514  -0.334  -4.784  1.00  0.00    -0.050 Br
ATOM     21  F   UNL     1       3.605   0.320  -4.390  1.00  0.00    -0.205 F 
BRANCH  17  22
ATOM     22  N   UNL     1       3.716   0.375  -1.690  1.00  0.00    -0.305 N 
ATOM     23  C   UNL     1       4.010   0.191  -0.348  1.00  0.00     0.323 C 
ATOM     24  O   UNL     1       3.222  -0.249   0.478  1.00  0.00    -0.248 OA
ATOM     25  N   UNL     1       5.318   0.571  -0.091  1.00  0.00    -0.308 N 
ATOM     26  H   UNL     1       4.504   0.446  -2.321  1.00  0.00     0.171 HD
ATOM     27  H   UNL     1       5.762   1.127  -0.805  1.00  0.00     0.171 HD
BRANCH  25  28
ATOM     28  C   UNL     1       6.029   0.443   1.121  1.00  0.00     0.042 A 
ATOM     29  C   UNL     1       5.560  -0.263   2.230  1.00  0.00     0.026 A 
ATOM     30  C   UNL     1       7.291   1.049   1.189  1.00  0.00     0.026 A 
ATOM     31  C   UNL     1       6.333  -0.352   3.393  1.00  0.00     0.002 A 
ATOM     32  C   UNL     1       8.063   0.961   2.351  1.00  0.00     0.002 A 
ATOM     33  C   UNL     1       7.583   0.261   3.454  1.00  0.00     0.000 A 
ENDBRANCH  25  28
ENDBRANCH  17  22
ENDBRANCH   9  14
BRANCH   4  34
ATOM     34  N   UNL     1      -6.268  -2.065   1.896  1.00  0.00    -0.373 N 
ATOM     35  C   UNL     1      -6.431  -1.233   3.078  1.00  0.00     0.141 C 
ATOM     36  H   UNL     1      -6.187  -3.050   2.152  1.00  0.00     0.161 HD
ENDBRANCH   4  34
TORSDOF 5
