REMARK SMILES CC(C)c1nc(CN(C)C(=O)N[C@H](C(=O)N[C@@H](Cc2ccccc2)C[C@H](O)[C@H](Cc2ccccc2)NC(=O)OCc2cncs2)C(C)C)cs1
REMARK SMILES IDX 14 1 15 2 16 3 13 5 46 6 47 7 48 8 12 9 10 10 11 11 8 13
REMARK SMILES IDX 9 14 7 15 6 16 49 17 5 18 50 19 4 20 2 21 1 22 3 23 17 24
REMARK SMILES IDX 25 25 26 26 27 27 28 29 29 30 30 31 31 32 35 33 32 34 34 35
REMARK SMILES IDX 33 36 36 37 37 38 38 39 39 41 40 42 41 43 42 44 45 45 43 46
REMARK SMILES IDX 44 47 18 48 19 49 20 50 24 51 21 52 23 53 22 54
REMARK H PARENT 16 4 12 12 27 28 36 40
ROOT
ATOM      1  C   UNL     1      -0.356  -1.655  -0.462  1.00  0.00     0.243 C 
ATOM      2  O   UNL     1       0.056  -1.378  -1.590  1.00  0.00    -0.273 OA
ATOM      3  N   UNL     1       0.295  -2.524   0.385  1.00  0.00    -0.351 N 
ATOM      4  H   UNL     1      -0.094  -2.660   1.311  1.00  0.00     0.163 HD
ENDROOT
BRANCH   1   5
ATOM      5  C   UNL     1      -1.638  -1.015   0.122  1.00  0.00     0.175 C 
BRANCH   5   6
ATOM      6  C   UNL     1      -2.740  -2.062   0.412  1.00  0.00     0.015 C 
ATOM      7  C   UNL     1      -3.801  -1.504   1.366  1.00  0.00     0.010 C 
ATOM      8  C   UNL     1      -3.418  -2.582  -0.860  1.00  0.00     0.010 C 
ENDBRANCH   5   6
BRANCH   5   9
ATOM      9  N   UNL     1      -2.090   0.017  -0.811  1.00  0.00    -0.326 N 
ATOM     10  C   UNL     1      -2.488   1.252  -0.371  1.00  0.00     0.318 C 
ATOM     11  O   UNL     1      -2.446   1.553   0.818  1.00  0.00    -0.249 OA
ATOM     12  H   UNL     1      -1.587   0.015  -1.687  1.00  0.00     0.166 HD
BRANCH  10  13
ATOM     13  N   UNL     1      -2.956   2.104  -1.363  1.00  0.00    -0.322 N 
ATOM     14  C   UNL     1      -3.211   1.684  -2.735  1.00  0.00     0.149 C 
BRANCH  13  15
ATOM     15  C   UNL     1      -3.619   3.329  -0.917  1.00  0.00     0.178 C 
BRANCH  15  16
ATOM     16  C   UNL     1      -5.106   3.134  -0.821  1.00  0.00     0.071 A 
ATOM     17  C   UNL     1      -6.046   3.474  -1.779  1.00  0.00     0.092 A 
ATOM     18  N   UNL     1      -5.644   2.572   0.327  1.00  0.00    -0.244 NA
ATOM     19  S   UNL     1      -7.619   3.052  -1.245  1.00  0.00    -0.127 S 
ATOM     20  C   UNL     1      -6.951   2.464   0.226  1.00  0.00     0.095 A 
BRANCH  20  21
ATOM     21  C   UNL     1      -7.840   1.892   1.301  1.00  0.00     0.042 C 
ATOM     22  C   UNL     1      -7.281   0.566   1.820  1.00  0.00     0.015 C 
ATOM     23  C   UNL     1      -7.998   2.892   2.446  1.00  0.00     0.015 C 
ENDBRANCH  20  21
ENDBRANCH  15  16
ENDBRANCH  13  15
ENDBRANCH  10  13
ENDBRANCH   5   9
ENDBRANCH   1   5
BRANCH   3  24
ATOM     24  C   UNL     1       1.538  -3.241   0.090  1.00  0.00     0.089 C 
BRANCH  24  25
ATOM     25  C   UNL     1       2.803  -2.381   0.310  1.00  0.00     0.059 C 
BRANCH  25  26
ATOM     26  C   UNL     1       2.916  -1.051  -0.447  1.00  0.00     0.139 C 
BRANCH  26  27
ATOM     27  O   UNL     1       2.746  -1.283  -1.851  1.00  0.00    -0.391 OA
ATOM     28  H   UNL     1       1.778  -1.225  -2.015  1.00  0.00     0.211 HD
ENDBRANCH  26  27
BRANCH  26  29
ATOM     29  C   UNL     1       4.290  -0.339  -0.255  1.00  0.00     0.118 C 
BRANCH  29  30
ATOM     30  C   UNL     1       4.778  -0.305   1.214  1.00  0.00     0.063 C 
BRANCH  30  31
ATOM     31  C   UNL     1       6.081   0.438   1.418  1.00  0.00    -0.046 A 
ATOM     32  C   UNL     1       6.090   1.679   2.069  1.00  0.00     0.004 A 
ATOM     33  C   UNL     1       7.293  -0.093   0.956  1.00  0.00     0.004 A 
ATOM     34  C   UNL     1       7.284   2.380   2.244  1.00  0.00     0.000 A 
ATOM     35  C   UNL     1       8.487   0.609   1.135  1.00  0.00     0.000 A 
ATOM     36  C   UNL     1       8.482   1.846   1.776  1.00  0.00     0.000 A 
ENDBRANCH  30  31
ENDBRANCH  29  30
BRANCH  29  37
ATOM     37  N   UNL     1       4.262   0.997  -0.860  1.00  0.00    -0.316 N 
ATOM     38  C   UNL     1       3.535   2.041  -0.385  1.00  0.00     0.407 C 
ATOM     39  O   UNL     1       2.767   1.996   0.565  1.00  0.00    -0.225 OA
ATOM     40  H   UNL     1       4.872   1.195  -1.642  1.00  0.00     0.167 HD
BRANCH  38  41
ATOM     41  O   UNL     1       3.817   3.146  -1.112  1.00  0.00    -0.444 OA
BRANCH  41  42
ATOM     42  C   UNL     1       3.194   4.352  -0.654  1.00  0.00     0.283 C 
BRANCH  42  43
ATOM     43  C   UNL     1       4.107   4.991   0.337  1.00  0.00     0.062 A 
ATOM     44  C   UNL     1       4.040   4.961   1.716  1.00  0.00     0.130 A 
ATOM     45  S   UNL     1       5.474   5.909  -0.150  1.00  0.00    -0.124 S 
ATOM     46  N   UNL     1       5.041   5.645   2.380  1.00  0.00    -0.253 NA
ATOM     47  C   UNL     1       5.855   6.181   1.499  1.00  0.00     0.175 A 
ENDBRANCH  42  43
ENDBRANCH  41  42
ENDBRANCH  38  41
ENDBRANCH  29  37
ENDBRANCH  26  29
ENDBRANCH  25  26
ENDBRANCH  24  25
BRANCH  24  48
ATOM     48  C   UNL     1       1.542  -4.042  -1.234  1.00  0.00     0.060 C 
BRANCH  48  49
ATOM     49  C   UNL     1       0.495  -5.137  -1.264  1.00  0.00    -0.046 A 
ATOM     50  C   UNL     1      -0.630  -5.012  -2.089  1.00  0.00     0.004 A 
ATOM     51  C   UNL     1       0.629  -6.283  -0.468  1.00  0.00     0.004 A 
ATOM     52  C   UNL     1      -1.609  -6.006  -2.109  1.00  0.00     0.000 A 
ATOM     53  C   UNL     1      -0.351  -7.276  -0.489  1.00  0.00     0.000 A 
ATOM     54  C   UNL     1      -1.471  -7.136  -1.307  1.00  0.00     0.000 A 
ENDBRANCH  48  49
ENDBRANCH  24  48
ENDBRANCH   3  24
TORSDOF 20
