REMARK SMILES CCN(C)C(=O)Oc1cccc([C@H](C)N(C)C)c1
REMARK SMILES IDX 7 1 5 2 6 3 3 4 4 5 2 6 1 7 8 8 9 9 18 10 10 11 12 12 11 13
REMARK SMILES IDX 13 14 14 15 15 16 16 17 17 18
REMARK H PARENT
ROOT
ATOM      1  O   UNL     1       1.708  -0.797  -0.579  1.00  0.00    -0.410 OA
ENDROOT
BRANCH   1   2
ATOM      2  C   UNL     1       2.466  -0.382   0.515  1.00  0.00     0.414 C 
ATOM      3  O   UNL     1       2.234   0.625   1.178  1.00  0.00    -0.224 OA
BRANCH   2   4
ATOM      4  N   UNL     1       3.536  -1.236   0.774  1.00  0.00    -0.311 N 
ATOM      5  C   UNL     1       3.893  -2.320  -0.126  1.00  0.00     0.150 C 
BRANCH   4   6
ATOM      6  C   UNL     1       4.520  -0.829   1.769  1.00  0.00     0.119 C 
ATOM      7  C   UNL     1       5.599   0.069   1.184  1.00  0.00     0.027 C 
ENDBRANCH   4   6
ENDBRANCH   2   4
ENDBRANCH   1   2
BRANCH   1   8
ATOM      8  C   UNL     1       0.591  -0.016  -0.910  1.00  0.00     0.133 A 
ATOM      9  C   UNL     1       0.546   0.522  -2.193  1.00  0.00     0.047 A 
ATOM     10  C   UNL     1      -0.473   0.135  -0.018  1.00  0.00     0.052 A 
ATOM     11  C   UNL     1      -0.574   1.251  -2.583  1.00  0.00     0.004 A 
ATOM     12  C   UNL     1      -1.602   0.880  -0.392  1.00  0.00    -0.027 A 
ATOM     13  C   UNL     1      -1.635   1.428  -1.691  1.00  0.00     0.005 A 
BRANCH  12  14
ATOM     14  C   UNL     1      -2.799   1.112   0.534  1.00  0.00     0.083 C 
ATOM     15  C   UNL     1      -2.495   0.904   2.029  1.00  0.00     0.030 C 
BRANCH  14  16
ATOM     16  N   UNL     1      -3.995   0.393   0.038  1.00  0.00    -0.303 NA
ATOM     17  C   UNL     1      -5.238   0.921   0.595  1.00  0.00     0.105 C 
ATOM     18  C   UNL     1      -3.931  -1.057   0.210  1.00  0.00     0.105 C 
ENDBRANCH  14  16
ENDBRANCH  12  14
ENDBRANCH   1   8
TORSDOF 6
