REMARK SMILES CN(C)CCc1c[nH]c2ccc(Cn3cncn3)cc12
REMARK SMILES IDX 5 1 4 2 2 3 1 4 3 5 6 6 7 7 20 8 8 9 9 10 19 11 10 12 12 13
REMARK SMILES IDX 11 14 13 16 14 17 15 18 18 19 16 20 17 21
REMARK H PARENT 8 15
ROOT
ATOM      1  C   UNL     1       1.939  -0.807   1.382  1.00  0.00     0.053 C 
ENDROOT
BRANCH   1   2
ATOM      2  C   UNL     1       2.470   0.582   0.980  1.00  0.00     0.088 C 
BRANCH   2   3
ATOM      3  N   UNL     1       3.076   1.405   2.041  1.00  0.00    -0.309 NA
ATOM      4  C   UNL     1       2.132   1.751   3.098  1.00  0.00     0.104 C 
ATOM      5  C   UNL     1       4.288   0.807   2.594  1.00  0.00     0.104 C 
ENDBRANCH   2   3
ENDBRANCH   1   2
BRANCH   1   6
ATOM      6  C   UNL     1       1.339  -1.541   0.220  1.00  0.00    -0.021 A 
ATOM      7  C   UNL     1       1.957  -2.515  -0.539  1.00  0.00     0.087 A 
ATOM      8  C   UNL     1       0.023  -1.369  -0.318  1.00  0.00     0.003 A 
ATOM      9  N   UNL     1       1.079  -2.933  -1.502  1.00  0.00    -0.361 N 
ATOM     10  C   UNL     1      -0.110  -2.251  -1.389  1.00  0.00     0.046 A 
ATOM     11  C   UNL     1      -1.070  -0.539   0.009  1.00  0.00     0.016 A 
ATOM     12  C   UNL     1      -1.279  -2.350  -2.150  1.00  0.00     0.027 A 
ATOM     13  C   UNL     1      -2.259  -0.610  -0.742  1.00  0.00    -0.026 A 
ATOM     14  C   UNL     1      -2.349  -1.517  -1.806  1.00  0.00     0.008 A 
ATOM     15  H   UNL     1       1.270  -3.640  -2.198  1.00  0.00     0.166 HD
BRANCH  13  16
ATOM     16  C   UNL     1      -3.427   0.281  -0.399  1.00  0.00     0.181 C 
BRANCH  16  17
ATOM     17  N   UNL     1      -3.699   1.245  -1.450  1.00  0.00    -0.249 N 
ATOM     18  C   UNL     1      -2.914   2.280  -1.857  1.00  0.00     0.220 A 
ATOM     19  N   UNL     1      -4.870   1.235  -2.121  1.00  0.00    -0.160 NA
ATOM     20  N   UNL     1      -3.534   2.960  -2.794  1.00  0.00    -0.224 NA
ATOM     21  C   UNL     1      -4.716   2.288  -2.928  1.00  0.00     0.246 A 
ENDBRANCH  16  17
ENDBRANCH  13  16
ENDBRANCH   1   6
TORSDOF 5
