REMARK SMILES CN(C)[C@@H]1C(O)=C(C(=O)NCN2CCCC2)C(=O)[C@@]2(O)C(O)=C3C(=O)c4c(O)cccc4[C@@](C)(O)[C@H]3C[C@@H]12
REMARK SMILES IDX 4 1 38 2 37 3 36 4 23 5 21 6 19 7 17 8 18 9 7 10 5 11 24 12
REMARK SMILES IDX 25 13 26 14 27 15 29 16 30 17 31 18 32 19 33 20 34 21 2 22
REMARK SMILES IDX 1 23 3 24 6 25 20 27 8 29 9 30 10 31 11 33 12 34 13 35 16 36
REMARK SMILES IDX 14 37 15 38 22 39 35 41 28 43
REMARK H PARENT 6 26 20 28 10 32 22 40 35 42 28 44
ROOT
ATOM      1  C   UNL     1      -0.131   2.415   0.153  1.00  0.00     0.130 C 
ATOM      2  C   UNL     1       1.210   1.703   0.525  1.00  0.00     0.062 C 
ATOM      3  C   UNL     1       1.670   0.791  -0.640  1.00  0.00     0.021 C 
ATOM      4  C   UNL     1       3.008   0.074  -0.362  1.00  0.00     0.063 C 
ATOM      5  C   UNL     1       3.018  -0.519   1.029  1.00  0.00     0.048 C 
ATOM      6  C   UNL     1       2.157  -0.156   2.005  1.00  0.00     0.140 C 
ATOM      7  C   UNL     1       1.084   0.914   1.841  1.00  0.00     0.190 C 
ATOM      8  C   UNL     1      -0.322   0.291   2.044  1.00  0.00     0.211 C 
ATOM      9  O   UNL     1      -0.686  -0.155   3.137  1.00  0.00    -0.290 OA
ATOM     10  C   UNL     1      -1.279   0.303   0.904  1.00  0.00     0.125 C 
ATOM     11  C   UNL     1      -1.202   1.331   0.036  1.00  0.00     0.126 C 
ATOM     12  C   UNL     1       4.093  -1.509   1.333  1.00  0.00     0.197 C 
ATOM     13  O   UNL     1       4.271  -1.936   2.476  1.00  0.00    -0.289 OA
ATOM     14  C   UNL     1       4.987  -1.957   0.241  1.00  0.00     0.070 A 
ATOM     15  C   UNL     1       6.165  -2.656   0.564  1.00  0.00     0.127 A 
ATOM     16  C   UNL     1       7.027  -3.099  -0.431  1.00  0.00     0.047 A 
ATOM     17  C   UNL     1       6.713  -2.866  -1.763  1.00  0.00     0.004 A 
ATOM     18  C   UNL     1       5.539  -2.186  -2.098  1.00  0.00     0.008 A 
ATOM     19  C   UNL     1       4.658  -1.707  -1.106  1.00  0.00    -0.001 A 
ATOM     20  C   UNL     1       3.351  -1.000  -1.450  1.00  0.00     0.095 C 
ATOM     21  C   UNL     1       3.357  -0.362  -2.853  1.00  0.00     0.048 C 
ENDROOT
BRANCH   1  22
ATOM     22  N   UNL     1      -0.575   3.497   1.059  1.00  0.00    -0.299 NA
ATOM     23  C   UNL     1      -1.825   4.138   0.636  1.00  0.00     0.105 C 
ATOM     24  C   UNL     1       0.444   4.538   1.243  1.00  0.00     0.105 C 
ENDBRANCH   1  22
BRANCH  11  25
ATOM     25  O   UNL     1      -2.047   1.421  -1.063  1.00  0.00    -0.510 OA
ATOM     26  H   UNL     1      -1.904   2.273  -1.511  1.00  0.00     0.293 HD
ENDBRANCH  11  25
BRANCH   7  27
ATOM     27  O   UNL     1       1.307   1.828   2.930  1.00  0.00    -0.374 OA
ATOM     28  H   UNL     1       1.262   1.257   3.727  1.00  0.00     0.212 HD
ENDBRANCH   7  27
BRANCH  10  29
ATOM     29  C   UNL     1      -2.248  -0.816   0.772  1.00  0.00     0.259 C 
ATOM     30  O   UNL     1      -1.902  -1.976   0.968  1.00  0.00    -0.269 OA
ATOM     31  N   UNL     1      -3.522  -0.455   0.428  1.00  0.00    -0.339 N 
ATOM     32  H   UNL     1      -3.762   0.516   0.301  1.00  0.00     0.165 HD
BRANCH  31  33
ATOM     33  C   UNL     1      -4.591  -1.395   0.400  1.00  0.00     0.204 C 
BRANCH  33  34
ATOM     34  N   UNL     1      -5.677  -0.745  -0.310  1.00  0.00    -0.286 NA
ATOM     35  C   UNL     1      -5.452  -0.693  -1.759  1.00  0.00     0.086 C 
ATOM     36  C   UNL     1      -6.927  -1.495  -0.164  1.00  0.00     0.086 C 
ATOM     37  C   UNL     1      -6.837  -0.389  -2.311  1.00  0.00     0.017 C 
ATOM     38  C   UNL     1      -7.808  -0.920  -1.263  1.00  0.00     0.017 C 
ENDBRANCH  33  34
ENDBRANCH  31  33
ENDBRANCH  10  29
BRANCH   6  39
ATOM     39  O   UNL     1       2.242  -0.647   3.304  1.00  0.00    -0.508 OA
ATOM     40  H   UNL     1       2.964  -1.313   3.352  1.00  0.00     0.293 HD
ENDBRANCH   6  39
BRANCH  20  41
ATOM     41  O   UNL     1       2.305  -1.978  -1.470  1.00  0.00    -0.385 OA
ATOM     42  H   UNL     1       2.695  -2.862  -1.591  1.00  0.00     0.211 HD
ENDBRANCH  20  41
BRANCH  15  43
ATOM     43  O   UNL     1       6.544  -2.948   1.848  1.00  0.00    -0.507 OA
ATOM     44  H   UNL     1       5.813  -2.688   2.452  1.00  0.00     0.293 HD
ENDBRANCH  15  43
TORSDOF 9
