REMARK SMILES CCn1cc(C(=O)O)c(=O)c2ccc(-c3ccncc3)cc21
REMARK SMILES IDX 3 1 4 2 5 3 9 4 10 5 11 6 12 7 13 8 14 9 21 10 22 11 2 12
REMARK SMILES IDX 1 13 6 14 7 15 8 16 15 18 16 19 20 20 17 21 19 22 18 23
REMARK H PARENT 8 17
ROOT
ATOM      1  N   UNL     1       1.871  -0.470  -0.325  1.00  0.00    -0.347 N 
ATOM      2  C   UNL     1       3.071   0.228  -0.388  1.00  0.00     0.105 C 
ATOM      3  C   UNL     1       3.235   1.560  -0.413  1.00  0.00     0.124 C 
ATOM      4  C   UNL     1       1.998   2.377  -0.372  1.00  0.00     0.203 C 
ATOM      5  O   UNL     1       2.015   3.601  -0.444  1.00  0.00    -0.288 OA
ATOM      6  C   UNL     1       0.699   1.666  -0.246  1.00  0.00     0.047 A 
ATOM      7  C   UNL     1      -0.474   2.429  -0.156  1.00  0.00     0.015 A 
ATOM      8  C   UNL     1      -1.711   1.800  -0.033  1.00  0.00     0.009 A 
ATOM      9  C   UNL     1      -1.795   0.404   0.004  1.00  0.00    -0.016 A 
ATOM     10  C   UNL     1      -0.602  -0.345  -0.092  1.00  0.00     0.035 A 
ATOM     11  C   UNL     1       0.664   0.257  -0.221  1.00  0.00     0.053 A 
ENDROOT
BRANCH   1  12
ATOM     12  C   UNL     1       1.859  -1.944  -0.307  1.00  0.00     0.119 C 
ATOM     13  C   UNL     1       1.860  -2.474   1.120  1.00  0.00     0.027 C 
ENDBRANCH   1  12
BRANCH   3  14
ATOM     14  C   UNL     1       4.579   2.167  -0.467  1.00  0.00     0.341 C 
ATOM     15  O   UNL     1       4.868   3.341  -0.333  1.00  0.00    -0.246 OA
BRANCH  14  16
ATOM     16  O   UNL     1       5.563   1.270  -0.688  1.00  0.00    -0.477 OA
ATOM     17  H   UNL     1       6.367   1.832  -0.702  1.00  0.00     0.297 HD
ENDBRANCH  14  16
ENDBRANCH   3  14
BRANCH   9  18
ATOM     18  C   UNL     1      -3.096  -0.269   0.139  1.00  0.00    -0.015 A 
ATOM     19  C   UNL     1      -4.129  -0.037  -0.776  1.00  0.00     0.029 A 
ATOM     20  C   UNL     1      -3.343  -1.163   1.188  1.00  0.00     0.029 A 
ATOM     21  C   UNL     1      -5.336  -0.697  -0.610  1.00  0.00     0.111 A 
ATOM     22  C   UNL     1      -4.585  -1.773   1.273  1.00  0.00     0.111 A 
ATOM     23  N   UNL     1      -5.586  -1.562   0.394  1.00  0.00    -0.265 NA
ENDBRANCH   9  18
TORSDOF 4
