REMARK SMILES CN(C)C[C@@H]1CCn2cc(c3ccccc32)C2=C(C(=O)NC2=O)c2cn(c3ccccc23)CCO1
REMARK SMILES IDX 35 1 5 2 4 3 2 4 1 5 3 6 6 7 7 8 8 9 9 10 16 11 10 12 15 13
REMARK SMILES IDX 11 14 14 15 12 16 13 17 34 19 33 20 26 21 25 22 27 23 24 24
REMARK SMILES IDX 28 25 32 26 29 27 31 28 30 29 18 30 17 31 19 32 22 33 20 34
REMARK SMILES IDX 21 35 23 36
REMARK H PARENT 21 37
REMARK Flexibility Score:  183.900
ROOT
ATOM      1  O   UNL     1       1.395  -2.100   1.452  1.00  0.00    -0.375 OA
ENDROOT
BRANCH   1   2
ATOM      2  C   UNL     1       1.839  -0.777   1.099  1.00  0.00     0.134 C 
BRANCH   2   3
ATOM      3  C   UNL     1       3.356  -0.764   0.768  1.00  0.00     0.115 C 
BRANCH   3   4
ATOM      4  N   UNL     1       3.866   0.510   0.228  1.00  0.00    -0.307 NA
ATOM      5  C   UNL     1       5.331   0.540   0.294  1.00  0.00     0.105 C 
ATOM      6  C   UNL     1       3.440   0.705  -1.163  1.00  0.00     0.105 C 
ENDBRANCH   3   4
ENDBRANCH   2   3
BRANCH   2   7
ATOM      7  C   UNL     1       1.506   0.091   2.333  1.00  0.00     0.055 C 
BRANCH   7   8
ATOM      8  C   UNL     1       1.426   1.600   2.087  1.00  0.00     0.125 C 
BRANCH   8   9
ATOM      9  N   UNL     1       0.374   1.955   1.149  1.00  0.00    -0.347 N 
ATOM     10  C   UNL     1      -0.918   1.468   1.064  1.00  0.00     0.095 C 
ATOM     11  C   UNL     1       0.482   2.933   0.167  1.00  0.00     0.049 A 
ATOM     12  C   UNL     1      -1.641   1.989   0.049  1.00  0.00     0.014 CG0
ATOM     13  C   UNL     1       1.537   3.757  -0.176  1.00  0.00     0.027 A 
ATOM     14  C   UNL     1      -0.741   2.997  -0.544  1.00  0.00     0.008 A 
ATOM     15  C   UNL     1       1.364   4.652  -1.237  1.00  0.00     0.002 A 
ATOM     16  C   UNL     1      -0.920   3.881  -1.594  1.00  0.00     0.011 A 
ATOM     17  C   UNL     1       0.146   4.716  -1.938  1.00  0.00     0.001 A 
ATOM     18  G   UNL     1      -2.928   1.532  -0.386  1.00  0.00     0.000 G0
ENDBRANCH   8   9
ENDBRANCH   7   8
ENDBRANCH   2   7
ENDBRANCH   1   2
BRANCH   1  19
ATOM     19  C   UNL     1       1.378  -3.099   0.431  1.00  0.00     0.182 C 
BRANCH  19  20
ATOM     20  C   UNL     1       0.637  -2.787  -0.884  1.00  0.00     0.150 C 
BRANCH  20  21
ATOM     21  N   UNL     1      -0.741  -2.356  -0.713  1.00  0.00    -0.345 N 
ATOM     22  C   UNL     1      -1.264  -1.097  -0.947  1.00  0.00     0.095 C 
ATOM     23  C   UNL     1      -1.788  -3.114  -0.209  1.00  0.00     0.049 A 
ATOM     24  C   UNL     1      -2.559  -0.947  -0.592  1.00  0.00     0.014 C 
ATOM     25  C   UNL     1      -1.838  -4.444   0.163  1.00  0.00     0.027 A 
ATOM     26  C   UNL     1      -2.938  -2.292  -0.109  1.00  0.00     0.008 A 
ATOM     27  C   UNL     1      -3.044  -4.950   0.662  1.00  0.00     0.002 A 
ATOM     28  C   UNL     1      -4.133  -2.789   0.387  1.00  0.00     0.011 A 
ATOM     29  C   UNL     1      -4.178  -4.131   0.773  1.00  0.00     0.001 A 
BRANCH  24  30
ATOM     30  C   UNL     1      -3.320   0.273  -0.665  1.00  0.00     0.063 C 
ATOM     31  C   UNL     1      -2.928   1.532  -0.386  1.00  0.00     0.063 CG0
ATOM     32  C   UNL     1      -4.732   0.354  -1.104  1.00  0.00     0.259 C 
ATOM     33  C   UNL     1      -4.074   2.426  -0.651  1.00  0.00     0.259 C 
ATOM     34  O   UNL     1      -5.428  -0.558  -1.508  1.00  0.00    -0.269 OA
ATOM     35  N   UNL     1      -5.111   1.645  -1.011  1.00  0.00    -0.288 N 
ATOM     36  O   UNL     1      -4.086   3.641  -0.578  1.00  0.00    -0.269 OA
ATOM     37  H   UNL     1      -6.009   1.994  -1.299  1.00  0.00     0.173 HD
ATOM     38  G   UNL     1      -1.641   1.989   0.049  1.00  0.00     0.000 G0
ENDBRANCH  24  30
ENDBRANCH  20  21
ENDBRANCH  19  20
ENDBRANCH   1  19
TORSDOF 2
