REMARK SMILES CN1CCN(c2c(F)cc3c(=O)c(C(=O)O)cn4c3c2SCC4)CC1
REMARK SMILES IDX 6 1 20 2 21 3 22 4 23 5 18 6 17 7 13 8 11 9 12 10 10 11 9 12
REMARK SMILES IDX 7 13 8 14 19 15 5 16 2 17 3 18 25 19 4 20 24 21 1 22 14 23
REMARK SMILES IDX 15 24 16 25
REMARK H PARENT 16 26
ROOT
ATOM      1  C   UNL     1       0.517   0.478  -0.423  1.00  0.00     0.089 A 
ATOM      2  C   UNL     1      -0.450  -0.175   0.398  1.00  0.00     0.058 A 
ATOM      3  S   UNL     1       0.125  -1.472   1.527  1.00  0.00    -0.120 SA
ATOM      4  C   UNL     1      -1.439  -2.310   1.835  1.00  0.00     0.097 C 
ATOM      5  C   UNL     1      -2.469  -1.275   2.237  1.00  0.00     0.133 C 
ATOM      6  N   UNL     1      -2.858  -0.416   1.106  1.00  0.00    -0.345 N 
ATOM      7  C   UNL     1      -4.170   0.015   0.967  1.00  0.00     0.106 C 
ATOM      8  C   UNL     1      -4.641   0.903   0.079  1.00  0.00     0.124 C 
ATOM      9  C   UNL     1      -3.645   1.496  -0.840  1.00  0.00     0.204 C 
ATOM     10  O   UNL     1      -3.961   2.271  -1.737  1.00  0.00    -0.288 OA
ATOM     11  C   UNL     1      -2.217   1.121  -0.665  1.00  0.00     0.051 A 
ATOM     12  C   UNL     1      -1.281   1.741  -1.492  1.00  0.00     0.056 A 
ATOM     13  C   UNL     1       0.058   1.421  -1.361  1.00  0.00     0.148 A 
ATOM     14  F   UNL     1       0.935   2.040  -2.169  1.00  0.00    -0.205 F 
ATOM     15  C   UNL     1      -1.836   0.162   0.305  1.00  0.00     0.068 A 
ENDROOT
BRANCH   1  16
ATOM     16  N   UNL     1       1.890   0.239  -0.385  1.00  0.00    -0.366 N 
ATOM     17  N   UNL     1       4.643  -0.829   0.023  1.00  0.00    -0.303 NA
ATOM     18  C   UNL     1       3.961  -0.727  -1.290  1.00  0.00     0.105 C 
ATOM     19  C   UNL     1       3.761  -0.404   1.134  1.00  0.00     0.105 C 
ATOM     20  C   UNL     1       2.421  -0.845  -1.219  1.00  0.00     0.132 C 
ATOM     21  C   UNL     1       2.680   0.647   0.782  1.00  0.00     0.132 C 
ATOM     22  C   UNL     1       5.895  -0.077   0.007  1.00  0.00     0.105 C 
ENDBRANCH   1  16
BRANCH   8  23
ATOM     23  C   UNL     1      -6.067   1.280   0.052  1.00  0.00     0.341 C 
ATOM     24  O   UNL     1      -6.576   2.208  -0.547  1.00  0.00    -0.246 OA
BRANCH  23  25
ATOM     25  O   UNL     1      -6.847   0.470   0.799  1.00  0.00    -0.477 OA
ATOM     26  H   UNL     1      -7.743   0.847   0.661  1.00  0.00     0.297 HD
ENDBRANCH  23  25
ENDBRANCH   8  23
TORSDOF 3
