REMARK SMILES CCOC(=O)[C@H](C)C[C@@H](Cc1ccc(-c2ccccc2)cc1)NC(=O)CCC(=O)O
REMARK SMILES IDX 9 1 8 2 6 3 7 4 4 5 5 6 3 7 2 8 1 9 10 10 11 11 12 12 22 13
REMARK SMILES IDX 13 14 21 15 14 16 15 17 16 18 20 19 17 20 19 21 18 22 23 23
REMARK SMILES IDX 24 24 25 25 26 27 27 28 28 29 29 30 30 31
REMARK H PARENT 23 26 30 32
ROOT
ATOM      1  C   UNL     1      -1.341  -0.240   0.493  1.00  0.00     0.087 C 
ENDROOT
BRANCH   1   2
ATOM      2  C   UNL     1      -1.324  -1.281  -0.652  1.00  0.00     0.040 C 
BRANCH   2   3
ATOM      3  C   UNL     1      -2.255  -2.500  -0.481  1.00  0.00     0.098 C 
ATOM      4  C   UNL     1      -2.038  -3.264   0.820  1.00  0.00     0.020 C 
BRANCH   3   5
ATOM      5  C   UNL     1      -3.720  -2.114  -0.652  1.00  0.00     0.308 C 
ATOM      6  O   UNL     1      -4.133  -0.977  -0.829  1.00  0.00    -0.252 OA
BRANCH   5   7
ATOM      7  O   UNL     1      -4.507  -3.227  -0.622  1.00  0.00    -0.466 OA
BRANCH   7   8
ATOM      8  C   UNL     1      -5.904  -2.965  -0.798  1.00  0.00     0.229 C 
ATOM      9  C   UNL     1      -6.645  -4.287  -0.740  1.00  0.00     0.049 C 
ENDBRANCH   7   8
ENDBRANCH   5   7
ENDBRANCH   3   5
ENDBRANCH   2   3
ENDBRANCH   1   2
BRANCH   1  10
ATOM     10  C   UNL     1      -0.278  -0.475   1.601  1.00  0.00     0.060 C 
BRANCH  10  11
ATOM     11  C   UNL     1       1.167  -0.355   1.167  1.00  0.00    -0.046 A 
ATOM     12  C   UNL     1       1.795   0.895   1.120  1.00  0.00     0.004 A 
ATOM     13  C   UNL     1       1.909  -1.490   0.817  1.00  0.00     0.004 A 
ATOM     14  C   UNL     1       3.127   1.010   0.710  1.00  0.00     0.009 A 
ATOM     15  C   UNL     1       3.242  -1.372   0.410  1.00  0.00     0.009 A 
ATOM     16  C   UNL     1       3.874  -0.120   0.346  1.00  0.00    -0.018 A 
BRANCH  16  17
ATOM     17  C   UNL     1       5.276   0.002  -0.084  1.00  0.00    -0.018 A 
ATOM     18  C   UNL     1       6.292  -0.745   0.537  1.00  0.00     0.009 A 
ATOM     19  C   UNL     1       5.641   0.869  -1.128  1.00  0.00     0.009 A 
ATOM     20  C   UNL     1       7.624  -0.629   0.129  1.00  0.00     0.001 A 
ATOM     21  C   UNL     1       6.972   0.985  -1.537  1.00  0.00     0.001 A 
ATOM     22  C   UNL     1       7.963   0.236  -0.908  1.00  0.00     0.000 A 
ENDBRANCH  16  17
ENDBRANCH  10  11
ENDBRANCH   1  10
BRANCH   1  23
ATOM     23  N   UNL     1      -1.222   1.105  -0.074  1.00  0.00    -0.353 N 
ATOM     24  C   UNL     1      -1.682   2.222   0.590  1.00  0.00     0.220 C 
ATOM     25  O   UNL     1      -2.252   2.181   1.674  1.00  0.00    -0.275 OA
ATOM     26  H   UNL     1      -0.561   1.238  -0.831  1.00  0.00     0.163 HD
BRANCH  24  27
ATOM     27  C   UNL     1      -1.392   3.505  -0.155  1.00  0.00     0.111 C 
BRANCH  27  28
ATOM     28  C   UNL     1      -1.962   4.717   0.570  1.00  0.00     0.132 C 
BRANCH  28  29
ATOM     29  C   UNL     1      -1.644   5.980  -0.175  1.00  0.00     0.303 C 
ATOM     30  O   UNL     1      -0.993   6.088  -1.199  1.00  0.00    -0.252 OA
BRANCH  29  31
ATOM     31  O   UNL     1      -2.168   7.067   0.424  1.00  0.00    -0.481 OA
ATOM     32  H   UNL     1      -1.893   7.815  -0.147  1.00  0.00     0.296 HD
ENDBRANCH  29  31
ENDBRANCH  28  29
ENDBRANCH  27  28
ENDBRANCH  24  27
ENDBRANCH   1  23
TORSDOF 13
