REMARK SMILES O=C(Oc1ccccc1C(=O)O)c1ccccc1O
REMARK SMILES IDX 3 1 4 2 9 3 8 4 5 5 7 6 6 7 10 8 11 9 12 10 2 12 1 13 13 14
REMARK SMILES IDX 18 15 14 16 17 17 15 18 16 19 19 20
REMARK H PARENT 12 11 19 21
ROOT
ATOM      1  O   UNL     1      -0.390  -0.145   0.458  1.00  0.00    -0.422 OA
ENDROOT
BRANCH   1   2
ATOM      2  C   UNL     1      -1.735  -0.254   0.098  1.00  0.00     0.145 A 
ATOM      3  C   UNL     1      -2.432   0.765  -0.564  1.00  0.00     0.102 A 
ATOM      4  C   UNL     1      -3.787   0.555  -0.872  1.00  0.00     0.019 A 
ATOM      5  C   UNL     1      -2.380  -1.435   0.483  1.00  0.00     0.048 A 
ATOM      6  C   UNL     1      -4.429  -0.631  -0.505  1.00  0.00     0.001 A 
ATOM      7  C   UNL     1      -3.727  -1.624   0.177  1.00  0.00     0.004 A 
BRANCH   3   8
ATOM      8  C   UNL     1      -1.851   2.068  -0.973  1.00  0.00     0.339 C 
ATOM      9  O   UNL     1      -2.400   2.885  -1.692  1.00  0.00    -0.246 OA
BRANCH   8  10
ATOM     10  O   UNL     1      -0.647   2.339  -0.442  1.00  0.00    -0.478 OA
ATOM     11  H   UNL     1      -0.437   3.228  -0.794  1.00  0.00     0.297 HD
ENDBRANCH   8  10
ENDBRANCH   3   8
ENDBRANCH   1   2
BRANCH   1  12
ATOM     12  C   UNL     1       0.461  -0.467  -0.580  1.00  0.00     0.347 C 
ATOM     13  O   UNL     1       0.161  -0.776  -1.725  1.00  0.00    -0.246 OA
BRANCH  12  14
ATOM     14  C   UNL     1       1.860  -0.281  -0.139  1.00  0.00     0.102 A 
ATOM     15  C   UNL     1       2.337  -0.728   1.098  1.00  0.00     0.130 A 
ATOM     16  C   UNL     1       2.736   0.352  -1.033  1.00  0.00     0.019 A 
ATOM     17  C   UNL     1       3.671  -0.514   1.452  1.00  0.00     0.047 A 
ATOM     18  C   UNL     1       4.069   0.563  -0.678  1.00  0.00     0.001 A 
ATOM     19  C   UNL     1       4.533   0.134   0.565  1.00  0.00     0.004 A 
BRANCH  15  20
ATOM     20  O   UNL     1       1.518  -1.407   1.955  1.00  0.00    -0.507 OA
ATOM     21  H   UNL     1       2.000  -1.603   2.776  1.00  0.00     0.293 HD
ENDBRANCH  15  20
ENDBRANCH  12  14
ENDBRANCH   1  12
TORSDOF 6
