REMARK SMILES CNCC(=O)N[C@@H](CCCNC(=N)N)C(=O)N[C@H](C(=O)N[C@@H](Cc1ccc(O)cc1)C(=O)N[C@H](C(=O)N[C@@H](Cc1c[nH]cn1)C(=O)N1CCC[C@H]1C(=O)N[C@@H](C)C(=O)O)C(C)C)C(C)C
REMARK SMILES IDX 31 1 32 2 33 3 22 5 21 6 19 7 20 8 18 10 17 11 15 12 16 13
REMARK SMILES IDX 7 15 6 16 4 17 5 18 3 20 2 21 1 22 8 24 9 25 10 26 11 27
REMARK SMILES IDX 12 28 14 29 13 30 63 35 64 36 65 37 23 38 24 39 25 40 30 41
REMARK SMILES IDX 26 42 29 43 27 44 28 45 34 47 60 48 61 49 62 50 35 51 36 52
REMARK SMILES IDX 37 53 38 55 39 56 40 57 41 58 44 59 42 60 43 61 45 63 46 64
REMARK SMILES IDX 47 65 48 66 51 67 49 68 50 69 52 70 53 71 54 72 55 74 56 75
REMARK SMILES IDX 57 76 58 77 59 78
REMARK H PARENT 33 4 21 9 17 14 6 19 2 23 11 31 14 32 14 33 13 34 28 46 37 54
REMARK H PARENT 42 62 54 73 59 79
ROOT
ATOM      1  C   UNL     1       0.448  -0.012  -0.840  1.00  0.00     0.243 C 
ATOM      2  O   UNL     1       0.995   0.917  -0.249  1.00  0.00    -0.273 OA
ATOM      3  N   UNL     1      -0.864  -0.004  -1.227  1.00  0.00    -0.342 N 
ATOM      4  H   UNL     1      -1.249  -0.796  -1.738  1.00  0.00     0.164 HD
ENDROOT
BRANCH   1   5
ATOM      5  C   UNL     1       1.172  -1.331  -1.141  1.00  0.00     0.175 C 
BRANCH   5   6
ATOM      6  N   UNL     1       2.557  -1.032  -1.492  1.00  0.00    -0.342 N 
ATOM      7  C   UNL     1       3.071  -1.449  -2.705  1.00  0.00     0.243 C 
ATOM      8  O   UNL     1       2.419  -2.125  -3.499  1.00  0.00    -0.273 OA
ATOM      9  H   UNL     1       2.928  -0.153  -1.139  1.00  0.00     0.164 HD
BRANCH   7  10
ATOM     10  C   UNL     1       4.535  -1.029  -2.976  1.00  0.00     0.174 C 
BRANCH  10  11
ATOM     11  N   UNL     1       5.078  -0.213  -1.889  1.00  0.00    -0.342 N 
ATOM     12  C   UNL     1       6.027   0.764  -2.114  1.00  0.00     0.243 C 
ATOM     13  O   UNL     1       6.386   1.092  -3.245  1.00  0.00    -0.273 OA
ATOM     14  H   UNL     1       4.975  -0.532  -0.933  1.00  0.00     0.164 HD
BRANCH  12  15
ATOM     15  C   UNL     1       6.741   1.276  -0.844  1.00  0.00     0.171 C 
BRANCH  15  16
ATOM     16  N   UNL     1       5.989   0.957   0.379  1.00  0.00    -0.343 N 
ATOM     17  C   UNL     1       4.918   1.756   0.745  1.00  0.00     0.234 C 
ATOM     18  O   UNL     1       4.461   2.619   0.002  1.00  0.00    -0.274 OA
ATOM     19  H   UNL     1       6.490   0.515   1.137  1.00  0.00     0.164 HD
BRANCH  17  20
ATOM     20  C   UNL     1       4.309   1.420   2.112  1.00  0.00     0.181 C 
BRANCH  20  21
ATOM     21  N   UNL     1       4.957   2.137   3.219  1.00  0.00    -0.311 NA
ATOM     22  C   UNL     1       6.269   1.618   3.580  1.00  0.00     0.101 C 
ATOM     23  H   UNL     1       4.348   2.082   4.038  1.00  0.00     0.122 HD
ENDBRANCH  20  21
ENDBRANCH  17  20
ENDBRANCH  15  16
BRANCH  15  24
ATOM     24  C   UNL     1       8.135   0.633  -0.804  1.00  0.00     0.037 C 
BRANCH  24  25
ATOM     25  C   UNL     1       9.076   1.358   0.168  1.00  0.00     0.024 C 
BRANCH  25  26
ATOM     26  C   UNL     1      10.440   0.676   0.287  1.00  0.00     0.116 C 
BRANCH  26  27
ATOM     27  N   UNL     1      10.316  -0.675   0.806  1.00  0.00    -0.357 N 
ATOM     28  C   UNL     1      10.059  -1.001   2.090  1.00  0.00     0.185 C 
ATOM     29  N   UNL     1      10.147  -2.329   2.283  1.00  0.00    -0.370 N 
ATOM     30  N   UNL     1       9.757  -0.237   3.073  1.00  0.00    -0.270 NA
ATOM     31  H   UNL     1      10.994  -1.308   0.392  1.00  0.00     0.163 HD
ATOM     32  H   UNL     1       9.801  -2.570   3.207  1.00  0.00     0.159 HD
ATOM     33  H   UNL     1       9.690  -2.873   1.566  1.00  0.00     0.159 HD
ATOM     34  H   UNL     1       9.776   0.735   2.772  1.00  0.00     0.191 HD
ENDBRANCH  26  27
ENDBRANCH  25  26
ENDBRANCH  24  25
ENDBRANCH  15  24
ENDBRANCH  12  15
ENDBRANCH  10  11
BRANCH  10  35
ATOM     35  C   UNL     1       5.467  -2.241  -3.233  1.00  0.00     0.015 C 
ATOM     36  C   UNL     1       5.168  -2.949  -4.557  1.00  0.00     0.010 C 
ATOM     37  C   UNL     1       5.452  -3.252  -2.079  1.00  0.00     0.010 C 
ENDBRANCH  10  35
ENDBRANCH   7  10
ENDBRANCH   5   6
BRANCH   5  38
ATOM     38  C   UNL     1       1.064  -2.215   0.113  1.00  0.00     0.070 C 
BRANCH  38  39
ATOM     39  C   UNL     1       1.596  -3.627  -0.006  1.00  0.00    -0.045 A 
ATOM     40  C   UNL     1       1.321  -4.431  -1.122  1.00  0.00     0.007 A 
ATOM     41  C   UNL     1       2.311  -4.189   1.065  1.00  0.00     0.007 A 
ATOM     42  C   UNL     1       1.764  -5.755  -1.172  1.00  0.00     0.046 A 
ATOM     43  C   UNL     1       2.755  -5.513   1.016  1.00  0.00     0.046 A 
ATOM     44  C   UNL     1       2.473  -6.287  -0.104  1.00  0.00     0.115 A 
BRANCH  44  45
ATOM     45  O   UNL     1       2.870  -7.589  -0.188  1.00  0.00    -0.508 OA
ATOM     46  H   UNL     1       3.295  -7.837   0.647  1.00  0.00     0.293 HD
ENDBRANCH  44  45
ENDBRANCH  38  39
ENDBRANCH   5  38
ENDBRANCH   1   5
BRANCH   3  47
ATOM     47  C   UNL     1      -1.816   1.069  -0.943  1.00  0.00     0.174 C 
BRANCH  47  48
ATOM     48  C   UNL     1      -1.618   2.281  -1.879  1.00  0.00     0.015 C 
ATOM     49  C   UNL     1      -1.876   1.952  -3.353  1.00  0.00     0.010 C 
ATOM     50  C   UNL     1      -2.457   3.492  -1.459  1.00  0.00     0.010 C 
ENDBRANCH  47  48
BRANCH  47  51
ATOM     51  C   UNL     1      -3.194   0.384  -1.068  1.00  0.00     0.243 C 
ATOM     52  O   UNL     1      -3.331  -0.692  -1.657  1.00  0.00    -0.273 OA
ATOM     53  N   UNL     1      -4.252   1.042  -0.502  1.00  0.00    -0.342 N 
ATOM     54  H   UNL     1      -4.059   1.747   0.208  1.00  0.00     0.164 HD
BRANCH  53  55
ATOM     55  C   UNL     1      -5.546   0.378  -0.355  1.00  0.00     0.177 C 
BRANCH  55  56
ATOM     56  C   UNL     1      -5.586  -0.518   0.895  1.00  0.00     0.093 C 
BRANCH  56  57
ATOM     57  C   UNL     1      -5.406   0.249   2.160  1.00  0.00     0.061 A 
ATOM     58  C   UNL     1      -6.329   0.510   3.147  1.00  0.00     0.107 A 
ATOM     59  N   UNL     1      -4.213   0.873   2.446  1.00  0.00    -0.242 NA
ATOM     60  N   UNL     1      -5.706   1.382   3.997  1.00  0.00    -0.351 N 
ATOM     61  C   UNL     1      -4.426   1.541   3.557  1.00  0.00     0.196 A 
ATOM     62  H   UNL     1      -6.130   1.842   4.792  1.00  0.00     0.167 HD
ENDBRANCH  56  57
ENDBRANCH  55  56
BRANCH  55  63
ATOM     63  C   UNL     1      -6.660   1.446  -0.334  1.00  0.00     0.246 C 
ATOM     64  O   UNL     1      -6.452   2.595   0.059  1.00  0.00    -0.272 OA
BRANCH  63  65
ATOM     65  N   UNL     1      -7.928   1.059  -0.729  1.00  0.00    -0.329 N 
ATOM     66  C   UNL     1      -8.275  -0.197  -1.381  1.00  0.00     0.120 C 
ATOM     67  C   UNL     1      -8.958   2.082  -0.983  1.00  0.00     0.174 C 
ATOM     68  C   UNL     1      -9.754  -0.070  -1.691  1.00  0.00     0.024 C 
ATOM     69  C   UNL     1      -9.897   1.416  -2.000  1.00  0.00     0.037 C 
BRANCH  67  70
ATOM     70  C   UNL     1      -9.772   2.519   0.256  1.00  0.00     0.243 C 
ATOM     71  O   UNL     1     -10.600   3.428   0.200  1.00  0.00    -0.273 OA
ATOM     72  N   UNL     1      -9.606   1.734   1.379  1.00  0.00    -0.341 N 
ATOM     73  H   UNL     1      -8.679   1.330   1.474  1.00  0.00     0.164 HD
BRANCH  72  74
ATOM     74  C   UNL     1     -10.366   2.014   2.595  1.00  0.00     0.189 C 
ATOM     75  C   UNL     1     -10.664   0.717   3.334  1.00  0.00     0.043 C 
BRANCH  74  76
ATOM     76  C   UNL     1      -9.592   2.950   3.523  1.00  0.00     0.325 C 
ATOM     77  O   UNL     1      -8.403   2.883   3.800  1.00  0.00    -0.250 OA
BRANCH  76  78
ATOM     78  O   UNL     1     -10.380   3.872   4.116  1.00  0.00    -0.480 OA
ATOM     79  H   UNL     1      -9.766   4.431   4.635  1.00  0.00     0.296 HD
ENDBRANCH  76  78
ENDBRANCH  74  76
ENDBRANCH  72  74
ENDBRANCH  67  70
ENDBRANCH  63  65
ENDBRANCH  55  63
ENDBRANCH  53  55
ENDBRANCH  47  51
ENDBRANCH   3  47
TORSDOF 28
