REMARK SMILES CC(C)CC(N(C)C)C1(c2ccc(Cl)cc2)CCC1
REMARK SMILES IDX 5 1 4 2 2 3 1 4 3 5 6 6 7 7 8 8 9 9 17 10 19 11 18 12 10 13
REMARK SMILES IDX 11 14 16 15 12 16 15 17 13 18 14 19
REMARK H PARENT
ROOT
ATOM      1  C   UNL     1      -0.507   0.040  -0.468  1.00  0.00     0.066 C 
ENDROOT
BRANCH   1   2
ATOM      2  C   UNL     1      -1.973  -0.329  -0.095  1.00  0.00     0.023 C 
BRANCH   2   3
ATOM      3  C   UNL     1      -2.799   0.640   0.774  1.00  0.00    -0.016 C 
ATOM      4  C   UNL     1      -2.830   2.061   0.213  1.00  0.00     0.007 C 
ATOM      5  C   UNL     1      -4.236   0.114   0.900  1.00  0.00     0.007 C 
ENDBRANCH   2   3
ENDBRANCH   1   2
BRANCH   1   6
ATOM      6  N   UNL     1      -0.022  -0.814  -1.593  1.00  0.00    -0.306 NA
ATOM      7  C   UNL     1      -0.479  -0.354  -2.901  1.00  0.00     0.105 C 
ATOM      8  C   UNL     1      -0.232  -2.248  -1.435  1.00  0.00     0.105 C 
ENDBRANCH   1   6
BRANCH   1   9
ATOM      9  C   UNL     1       0.546   0.020   0.712  1.00  0.00     0.011 C 
ATOM     10  C   UNL     1       0.315  -1.009   1.892  1.00  0.00     0.013 C 
ATOM     11  C   UNL     1       0.398   1.126   1.847  1.00  0.00     0.013 C 
ATOM     12  C   UNL     1       0.840   0.060   2.865  1.00  0.00     0.002 C 
BRANCH   9  13
ATOM     13  C   UNL     1       2.089   0.072   0.068  1.00  0.00    -0.040 A 
ATOM     14  C   UNL     1       2.954  -1.042   0.060  1.00  0.00     0.006 A 
ATOM     15  C   UNL     1       2.595   1.258  -0.513  1.00  0.00     0.006 A 
ATOM     16  C   UNL     1       4.243  -0.978  -0.482  1.00  0.00     0.021 A 
ATOM     17  C   UNL     1       3.881   1.332  -1.056  1.00  0.00     0.021 A 
ATOM     18  C   UNL     1       4.701   0.211  -1.036  1.00  0.00     0.041 A 
ATOM     19  Cl  UNL     1       6.284   0.293  -1.704  1.00  0.00    -0.084 Cl
ENDBRANCH   9  13
ENDBRANCH   1   9
TORSDOF 5
