REMARK SMILES CC1=CCC(C(C)(C)O)CC1O
REMARK SMILES IDX 1 1 2 2 3 3 4 4 5 5 10 6 11 7 12 8 6 10 7 11 8 12 9 13
REMARK H PARENT 12 9 9 14
ROOT
ATOM      1  C   UNL     1       3.820  -0.361  -0.021  1.00  0.00     0.042 C 
ATOM      2  C   UNL     1       2.321  -0.254  -0.069  1.00  0.00    -0.049 C 
ATOM      3  C   UNL     1       1.575  -1.130  -0.768  1.00  0.00    -0.025 C 
ATOM      4  C   UNL     1       0.071  -1.126  -0.781  1.00  0.00     0.034 C 
ATOM      5  C   UNL     1      -0.545  -0.281   0.353  1.00  0.00     0.027 C 
ATOM      6  C   UNL     1       0.201   1.063   0.445  1.00  0.00     0.043 C 
ATOM      7  C   UNL     1       1.694   0.857   0.740  1.00  0.00     0.140 C 
ENDROOT
BRANCH   7   8
ATOM      8  O   UNL     1       2.372   2.079   0.469  1.00  0.00    -0.389 OA
ATOM      9  H   UNL     1       2.336   2.213  -0.493  1.00  0.00     0.211 HD
ENDBRANCH   7   8
BRANCH   5  10
ATOM     10  C   UNL     1      -2.089  -0.117   0.247  1.00  0.00     0.062 C 
ATOM     11  C   UNL     1      -2.806  -1.473   0.246  1.00  0.00     0.042 C 
ATOM     12  C   UNL     1      -2.548   0.700  -0.964  1.00  0.00     0.042 C 
BRANCH  10  13
ATOM     13  O   UNL     1      -2.544   0.595   1.407  1.00  0.00    -0.390 OA
ATOM     14  H   UNL     1      -2.319   0.068   2.194  1.00  0.00     0.211 HD
ENDBRANCH  10  13
ENDBRANCH   5  10
TORSDOF 3
