REMARK SMILES O=S(=O)(c1ccc(NC(CC(c2ccccc2)S(=O)(=O)O)S(=O)(=O)O)cc1)c1ccc(NC(CC(c2ccccc2)S(=O)(=O)O)S(=O)(=O)O)cc1
REMARK SMILES IDX 2 1 1 2 3 3 4 4 7 5 6 6 26 7 5 8 27 9 8 10 9 12 22 13 23 14
REMARK SMILES IDX 24 15 25 16 10 18 11 19 12 20 13 21 17 22 14 23 16 24 15 25
REMARK SMILES IDX 18 26 19 27 20 28 21 29 28 31 29 32 51 33 30 34 50 35 31 36
REMARK SMILES IDX 32 37 33 39 34 40 35 41 36 42 37 43 41 44 38 45 40 46 39 47
REMARK SMILES IDX 42 48 43 49 44 50 45 51 46 53 47 54 48 55 49 56
REMARK H PARENT 8 11 25 17 21 30 32 38 45 52 49 57
ROOT
ATOM      1  S   UNL     1      -0.188   3.823   1.814  1.00  0.00     0.206 S 
ATOM      2  O   UNL     1      -0.223   4.955   0.906  1.00  0.00    -0.219 OA
ATOM      3  O   UNL     1      -0.361   4.019   3.241  1.00  0.00    -0.219 OA
ENDROOT
BRANCH   1   4
ATOM      4  C   UNL     1      -1.433   2.664   1.298  1.00  0.00     0.072 A 
ATOM      5  C   UNL     1      -3.430   0.852   0.525  1.00  0.00     0.035 A 
ATOM      6  C   UNL     1      -2.744   0.686   1.735  1.00  0.00     0.027 A 
ATOM      7  C   UNL     1      -3.074   1.925  -0.305  1.00  0.00     0.027 A 
ATOM      8  C   UNL     1      -1.757   1.593   2.132  1.00  0.00     0.023 A 
ATOM      9  C   UNL     1      -2.089   2.839   0.081  1.00  0.00     0.023 A 
BRANCH   5  10
ATOM     10  N   UNL     1      -4.422  -0.054   0.102  1.00  0.00    -0.367 N 
ATOM     11  H   UNL     1      -4.783   0.253  -0.805  1.00  0.00     0.161 HD
BRANCH  10  12
ATOM     12  C   UNL     1      -5.553  -0.241   1.065  1.00  0.00     0.229 C 
BRANCH  12  13
ATOM     13  S   UNL     1      -6.763   1.174   1.166  1.00  0.00     0.286 S 
ATOM     14  O   UNL     1      -6.302   2.179   2.097  1.00  0.00    -0.197 OA
ATOM     15  O   UNL     1      -7.201   1.529  -0.167  1.00  0.00    -0.197 OA
BRANCH  13  16
ATOM     16  O   UNL     1      -7.997   0.442   1.904  1.00  0.00    -0.284 OA
ATOM     17  H   UNL     1      -8.555   1.127   2.331  1.00  0.00     0.234 HD
ENDBRANCH  13  16
ENDBRANCH  12  13
BRANCH  12  18
ATOM     18  C   UNL     1      -6.248  -1.584   0.752  1.00  0.00     0.071 C 
BRANCH  18  19
ATOM     19  C   UNL     1      -6.974  -1.644  -0.609  1.00  0.00     0.169 C 
BRANCH  19  20
ATOM     20  C   UNL     1      -8.493  -1.720  -0.517  1.00  0.00    -0.027 A 
ATOM     21  C   UNL     1      -9.276  -0.817  -1.255  1.00  0.00     0.005 A 
ATOM     22  C   UNL     1      -9.153  -2.661   0.291  1.00  0.00     0.005 A 
ATOM     23  C   UNL     1     -10.670  -0.849  -1.182  1.00  0.00     0.000 A 
ATOM     24  C   UNL     1     -10.548  -2.693   0.361  1.00  0.00     0.000 A 
ATOM     25  C   UNL     1     -11.305  -1.787  -0.376  1.00  0.00     0.000 A 
ENDBRANCH  19  20
BRANCH  19  26
ATOM     26  S   UNL     1      -6.373  -3.031  -1.632  1.00  0.00     0.272 S 
ATOM     27  O   UNL     1      -7.203  -3.229  -2.797  1.00  0.00    -0.199 OA
ATOM     28  O   UNL     1      -4.933  -2.957  -1.763  1.00  0.00    -0.199 OA
BRANCH  26  29
ATOM     29  O   UNL     1      -6.663  -4.272  -0.637  1.00  0.00    -0.285 OA
ATOM     30  H   UNL     1      -6.355  -5.090  -1.083  1.00  0.00     0.234 HD
ENDBRANCH  26  29
ENDBRANCH  19  26
ENDBRANCH  18  19
ENDBRANCH  12  18
ENDBRANCH  10  12
ENDBRANCH   5  10
ENDBRANCH   1   4
BRANCH   1  31
ATOM     31  C   UNL     1       1.379   3.020   1.567  1.00  0.00     0.072 A 
ATOM     32  C   UNL     1       1.879   2.878   0.273  1.00  0.00     0.023 A 
ATOM     33  C   UNL     1       2.103   2.549   2.659  1.00  0.00     0.023 A 
ATOM     34  C   UNL     1       3.112   2.245   0.072  1.00  0.00     0.027 A 
ATOM     35  C   UNL     1       3.333   1.921   2.443  1.00  0.00     0.027 A 
ATOM     36  C   UNL     1       3.875   1.783   1.153  1.00  0.00     0.035 A 
BRANCH  36  37
ATOM     37  N   UNL     1       5.072   1.073   1.024  1.00  0.00    -0.367 N 
ATOM     38  H   UNL     1       5.651   1.191   1.858  1.00  0.00     0.161 HD
BRANCH  37  39
ATOM     39  C   UNL     1       5.916   1.208  -0.209  1.00  0.00     0.229 C 
BRANCH  39  40
ATOM     40  C   UNL     1       6.898   0.012  -0.195  1.00  0.00     0.071 C 
BRANCH  40  41
ATOM     41  C   UNL     1       7.669  -0.298  -1.497  1.00  0.00     0.169 C 
BRANCH  41  42
ATOM     42  C   UNL     1       8.662  -1.442  -1.324  1.00  0.00    -0.027 A 
ATOM     43  C   UNL     1       9.993  -1.266  -1.743  1.00  0.00     0.005 A 
ATOM     44  C   UNL     1       8.301  -2.675  -0.754  1.00  0.00     0.005 A 
ATOM     45  C   UNL     1      10.929  -2.292  -1.598  1.00  0.00     0.000 A 
ATOM     46  C   UNL     1       9.240  -3.699  -0.610  1.00  0.00     0.000 A 
ATOM     47  C   UNL     1      10.553  -3.507  -1.033  1.00  0.00     0.000 A 
ENDBRANCH  41  42
BRANCH  41  48
ATOM     48  S   UNL     1       6.603  -0.663  -2.922  1.00  0.00     0.272 S 
ATOM     49  O   UNL     1       5.827   0.518  -3.228  1.00  0.00    -0.199 OA
ATOM     50  O   UNL     1       7.310  -1.381  -3.957  1.00  0.00    -0.199 OA
BRANCH  48  51
ATOM     51  O   UNL     1       5.604  -1.737  -2.248  1.00  0.00    -0.285 OA
ATOM     52  H   UNL     1       5.661  -2.565  -2.775  1.00  0.00     0.234 HD
ENDBRANCH  48  51
ENDBRANCH  41  48
ENDBRANCH  40  41
ENDBRANCH  39  40
BRANCH  39  53
ATOM     53  S   UNL     1       6.842   2.834  -0.346  1.00  0.00     0.286 S 
ATOM     54  O   UNL     1       6.055   3.800  -1.076  1.00  0.00    -0.197 OA
ATOM     55  O   UNL     1       8.241   2.612  -0.635  1.00  0.00    -0.197 OA
BRANCH  53  56
ATOM     56  O   UNL     1       6.749   3.287   1.207  1.00  0.00    -0.284 OA
ATOM     57  H   UNL     1       6.025   3.948   1.282  1.00  0.00     0.234 HD
ENDBRANCH  53  56
ENDBRANCH  39  53
ENDBRANCH  37  39
ENDBRANCH  36  37
ENDBRANCH   1  31
TORSDOF 20
