REMARK SMILES C[C@@H]1CN(c2c(F)c(N)c3c(=O)c(C(=O)O)cn(C4CC4)c3c2F)C[C@H](C)N1
REMARK SMILES IDX 5 1 6 2 7 3 8 4 10 5 11 6 12 7 13 8 17 9 18 10 22 11 23 12
REMARK SMILES IDX 24 13 4 14 26 15 25 16 28 17 2 18 3 19 27 20 1 22 9 23 19 26
REMARK SMILES IDX 20 27 21 28 14 29 15 30 16 31
REMARK H PARENT 28 21 9 24 9 25 16 32
ROOT
ATOM      1  C   UNL     1      -0.634   0.505   0.044  1.00  0.00     0.114 A 
ATOM      2  C   UNL     1      -0.346   1.847   0.368  1.00  0.00     0.173 A 
ATOM      3  F   UNL     1      -1.357   2.727   0.509  1.00  0.00    -0.202 F 
ATOM      4  C   UNL     1       0.958   2.349   0.541  1.00  0.00     0.084 A 
ATOM      5  C   UNL     1       2.040   1.478   0.323  1.00  0.00     0.076 A 
ATOM      6  C   UNL     1       3.442   1.968   0.489  1.00  0.00     0.206 C 
ATOM      7  O   UNL     1       3.670   3.022   1.076  1.00  0.00    -0.288 OA
ATOM      8  C   UNL     1       4.533   1.111  -0.022  1.00  0.00     0.124 C 
ATOM      9  C   UNL     1       4.221  -0.162  -0.301  1.00  0.00     0.106 C 
ATOM     10  N   UNL     1       2.965  -0.728  -0.196  1.00  0.00    -0.341 N 
ATOM     11  C   UNL     1       1.829   0.122  -0.006  1.00  0.00     0.093 A 
ATOM     12  C   UNL     1       0.494  -0.326  -0.141  1.00  0.00     0.174 A 
ATOM     13  F   UNL     1       0.286  -1.615  -0.458  1.00  0.00    -0.202 F 
ENDROOT
BRANCH   1  14
ATOM     14  N   UNL     1      -1.952   0.059  -0.112  1.00  0.00    -0.364 N 
ATOM     15  C   UNL     1      -3.753  -1.272  -1.236  1.00  0.00     0.070 C 
ATOM     16  C   UNL     1      -2.271  -1.224  -0.758  1.00  0.00     0.135 C 
ATOM     17  N   UNL     1      -4.771  -0.913  -0.221  1.00  0.00    -0.308 NA
ATOM     18  C   UNL     1      -4.157  -0.368   1.007  1.00  0.00     0.070 C 
ATOM     19  C   UNL     1      -3.012   0.645   0.734  1.00  0.00     0.135 C 
ATOM     20  C   UNL     1      -3.944  -0.401  -2.485  1.00  0.00     0.026 C 
ATOM     21  H   UNL     1      -5.408  -0.221  -0.614  1.00  0.00     0.123 HD
ATOM     22  C   UNL     1      -5.247   0.278   1.863  1.00  0.00     0.026 C 
ENDBRANCH   1  14
BRANCH   4  23
ATOM     23  N   UNL     1       1.133   3.744   0.691  1.00  0.00    -0.396 N 
ATOM     24  H   UNL     1       2.051   3.987   1.081  1.00  0.00     0.156 HD
ATOM     25  H   UNL     1       0.359   4.208   1.158  1.00  0.00     0.156 HD
ENDBRANCH   4  23
BRANCH  10  26
ATOM     26  C   UNL     1       2.834  -2.167  -0.497  1.00  0.00     0.087 C 
ATOM     27  C   UNL     1       2.378  -3.146   0.559  1.00  0.00     0.027 C 
ATOM     28  C   UNL     1       3.785  -3.203   0.057  1.00  0.00     0.027 C 
ENDBRANCH  10  26
BRANCH   8  29
ATOM     29  C   UNL     1       5.925   1.537  -0.200  1.00  0.00     0.341 C 
ATOM     30  O   UNL     1       6.900   0.804  -0.199  1.00  0.00    -0.246 OA
BRANCH  29  31
ATOM     31  O   UNL     1       6.049   2.849  -0.448  1.00  0.00    -0.477 OA
ATOM     32  H   UNL     1       7.012   3.001  -0.533  1.00  0.00     0.297 HD
ENDBRANCH  29  31
ENDBRANCH   8  29
TORSDOF 5
