REMARK SMILES CO[C@@H]1[C@@H](O[C@@H]2O[C@H](C)[C@@H](O[C@H]3C[C@@](C)(O)[C@@H](O)[C@H](C)O3)[C@H](N(C)C)[C@H]2O)[C@@H](CC=O)C[C@@H](C)[C@@H](O[C@H]2CC[C@H](N(C)C)[C@@H](C)O2)/C=C/C=C/C[C@@H](C)OC(=O)C[C@H]1OC(C)=O
REMARK SMILES IDX 4 1 3 2 2 3 1 4 58 5 57 6 55 7 56 8 54 9 52 10 53 11 51 12
REMARK SMILES IDX 59 14 60 15 62 16 61 17 28 18 32 19 33 20 34 21 35 22 47 23
REMARK SMILES IDX 48 24 49 25 50 26 36 28 37 29 38 30 46 31 39 32 44 33 40 34
REMARK SMILES IDX 45 35 41 36 42 37 43 38 29 39 30 40 31 41 5 42 6 43 7 44
REMARK SMILES IDX 26 45 8 46 22 47 10 48 9 49 27 50 23 52 24 53 25 54 11 55
REMARK SMILES IDX 12 56 13 57 21 58 14 59 19 60 17 61 15 62 20 63 16 64 18 66
REMARK H PARENT 27 51 16 65 18 67
REMARK Flexibility Score:  179.900
ROOT
ATOM      1  C   UNL     1       0.151  -0.306  -1.037  1.00  0.00     0.158 C 
ENDROOT
BRANCH   1   2
ATOM      2  C   UNL     1       0.054  -1.697  -1.736  1.00  0.00     0.188 C 
BRANCH   2   3
ATOM      3  O   UNL     1       1.285  -2.096  -2.342  1.00  0.00    -0.375 OA
ATOM      4  C   UNL     1       1.538  -1.493  -3.604  1.00  0.00     0.195 C 
ENDBRANCH   2   3
BRANCH   2   5
ATOM      5  C   UNL     1      -0.542  -2.893  -0.923  1.00  0.00     0.219 C 
BRANCH   5   6
ATOM      6  C   UNL     1      -1.038  -3.999  -1.873  1.00  0.00     0.170 C 
BRANCH   6   7
ATOM      7  C   UNL     1       0.052  -4.722  -2.635  1.00  0.00     0.309 C 
ATOM      8  O   UNL     1       0.188  -4.689  -3.853  1.00  0.00    -0.252 OA
BRANCH   7   9
ATOM      9  O   UNL     1       0.811  -5.482  -1.797  1.00  0.00    -0.462 OA
BRANCH   9  10
ATOM     10  C   UNL     1       1.891  -6.257  -2.352  1.00  0.00     0.177 C 
ATOM     11  C   UNL     1       2.332  -7.238  -1.270  1.00  0.00     0.053 C 
BRANCH  10  12
ATOM     12  C   UNL     1       3.079  -5.395  -2.836  1.00  0.00     0.072 CG0
ATOM     13  G   UNL     1       3.513  -4.305  -1.897  1.00  0.00     0.000 G0
ENDBRANCH  10  12
ENDBRANCH   9  10
ENDBRANCH   7   9
ENDBRANCH   6   7
ENDBRANCH   5   6
BRANCH   5  14
ATOM     14  O   UNL     1       0.335  -3.531   0.015  1.00  0.00    -0.459 OA
BRANCH  14  15
ATOM     15  C   UNL     1       0.017  -3.464   1.338  1.00  0.00     0.303 C 
ATOM     16  O   UNL     1      -0.734  -2.650   1.842  1.00  0.00    -0.253 OA
ATOM     17  C   UNL     1       0.800  -4.503   2.094  1.00  0.00     0.139 C 
ENDBRANCH  14  15
ENDBRANCH   5  14
ENDBRANCH   2   5
ENDBRANCH   1   2
BRANCH   1  18
ATOM     18  C   UNL     1       1.502   0.067  -0.344  1.00  0.00     0.028 C 
BRANCH  18  19
ATOM     19  C   UNL     1       1.970  -0.921   0.739  1.00  0.00     0.013 C 
BRANCH  19  20
ATOM     20  C   UNL     1       3.326  -0.603   1.422  1.00  0.00     0.019 C 
ATOM     21  C   UNL     1       3.519  -1.520   2.637  1.00  0.00     0.011 C 
BRANCH  20  22
ATOM     22  C   UNL     1       4.534  -0.657   0.434  1.00  0.00     0.147 C 
BRANCH  22  23
ATOM     23  C   UNL     1       4.711  -2.024  -0.176  1.00  0.00     0.005 C 
ATOM     24  C   UNL     1       4.701  -2.218  -1.504  1.00  0.00    -0.002 C 
BRANCH  24  25
ATOM     25  C   UNL     1       4.543  -3.488  -2.169  1.00  0.00    -0.004 C 
ATOM     26  C   UNL     1       3.513  -4.305  -1.897  1.00  0.00    -0.023 CG0
ATOM     27  G   UNL     1       3.079  -5.395  -2.836  1.00  0.00     0.000 G0
ENDBRANCH  24  25
ENDBRANCH  22  23
BRANCH  22  28
ATOM     28  O   UNL     1       5.743  -0.307   1.109  1.00  0.00    -0.345 OA
BRANCH  28  29
ATOM     29  C   UNL     1       5.938   1.108   1.162  1.00  0.00     0.251 C 
ATOM     30  C   UNL     1       6.853   1.418   2.353  1.00  0.00     0.064 C 
ATOM     31  O   UNL     1       6.441   1.551  -0.094  1.00  0.00    -0.348 OA
ATOM     32  C   UNL     1       8.309   1.370   1.937  1.00  0.00     0.027 C 
ATOM     33  C   UNL     1       7.291   2.700   0.001  1.00  0.00     0.135 C 
ATOM     34  C   UNL     1       8.606   2.348   0.780  1.00  0.00     0.085 C 
ATOM     35  C   UNL     1       7.585   3.168  -1.426  1.00  0.00     0.040 C 
BRANCH  34  36
ATOM     36  N   UNL     1       9.427   3.460   1.301  1.00  0.00    -0.304 NA
ATOM     37  C   UNL     1      10.563   3.799   0.452  1.00  0.00     0.105 C 
ATOM     38  C   UNL     1       8.690   4.646   1.709  1.00  0.00     0.105 C 
ENDBRANCH  34  36
ENDBRANCH  28  29
ENDBRANCH  22  28
ENDBRANCH  20  22
ENDBRANCH  19  20
ENDBRANCH  18  19
BRANCH  18  39
ATOM     39  C   UNL     1       1.457   1.531   0.165  1.00  0.00     0.078 C 
BRANCH  39  40
ATOM     40  C   UNL     1       0.586   1.787   1.373  1.00  0.00     0.224 C 
ATOM     41  O   UNL     1       0.722   1.213   2.454  1.00  0.00    -0.303 OA
ENDBRANCH  39  40
ENDBRANCH  18  39
ENDBRANCH   1  18
BRANCH   1  42
ATOM     42  O   UNL     1      -0.949  -0.059  -0.166  1.00  0.00    -0.343 OA
BRANCH  42  43
ATOM     43  C   UNL     1      -2.129   0.498  -0.768  1.00  0.00     0.281 C 
ATOM     44  O   UNL     1      -2.275   1.813  -0.240  1.00  0.00    -0.344 OA
ATOM     45  C   UNL     1      -3.318  -0.421  -0.431  1.00  0.00     0.190 C 
ATOM     46  C   UNL     1      -3.481   2.442  -0.658  1.00  0.00     0.149 C 
ATOM     47  C   UNL     1      -4.710   0.251  -0.552  1.00  0.00     0.122 C 
ATOM     48  C   UNL     1      -4.700   1.722  -0.044  1.00  0.00     0.170 C 
ATOM     49  C   UNL     1      -3.420   3.903  -0.232  1.00  0.00     0.041 C 
BRANCH  45  50
ATOM     50  O   UNL     1      -3.261  -1.542  -1.349  1.00  0.00    -0.386 OA
ATOM     51  H   UNL     1      -3.878  -2.213  -1.006  1.00  0.00     0.211 HD
ENDBRANCH  45  50
BRANCH  47  52
ATOM     52  N   UNL     1      -5.827  -0.533   0.055  1.00  0.00    -0.301 NA
ATOM     53  C   UNL     1      -5.665  -0.873   1.463  1.00  0.00     0.105 C 
ATOM     54  C   UNL     1      -6.320  -1.651  -0.739  1.00  0.00     0.105 C 
ENDBRANCH  47  52
BRANCH  48  55
ATOM     55  O   UNL     1      -5.871   2.412  -0.513  1.00  0.00    -0.345 OA
BRANCH  55  56
ATOM     56  C   UNL     1      -6.788   2.829   0.506  1.00  0.00     0.253 C 
ATOM     57  C   UNL     1      -7.758   3.809  -0.159  1.00  0.00     0.100 C 
ATOM     58  O   UNL     1      -7.421   1.714   1.140  1.00  0.00    -0.347 OA
ATOM     59  C   UNL     1      -9.067   4.034   0.606  1.00  0.00     0.095 C 
ATOM     60  C   UNL     1      -8.797   1.534   0.803  1.00  0.00     0.150 C 
ATOM     61  C   UNL     1      -9.558   2.756   1.325  1.00  0.00     0.174 C 
ATOM     62  C   UNL     1      -8.944   5.179   1.609  1.00  0.00     0.045 C 
ATOM     63  C   UNL     1      -9.292   0.247   1.463  1.00  0.00     0.041 C 
BRANCH  59  64
ATOM     64  O   UNL     1     -10.055   4.452  -0.358  1.00  0.00    -0.387 OA
ATOM     65  H   UNL     1     -10.878   3.985  -0.094  1.00  0.00     0.211 HD
ENDBRANCH  59  64
BRANCH  61  66
ATOM     66  O   UNL     1     -10.975   2.632   1.158  1.00  0.00    -0.387 OA
ATOM     67  H   UNL     1     -11.320   2.262   1.989  1.00  0.00     0.211 HD
ENDBRANCH  61  66
ENDBRANCH  55  56
ENDBRANCH  48  55
ENDBRANCH  42  43
ENDBRANCH   1  42
TORSDOF 16
