REMARK SMILES Cc1cn([C@H]2C=C[C@@H](CO)O2)c(=O)[nH]c1=O
REMARK SMILES IDX 5 1 11 2 8 3 7 4 6 5 4 6 2 7 3 8 15 9 14 10 16 11 12 12
REMARK SMILES IDX 13 13 1 14 9 16 10 17
REMARK H PARENT 14 15 10 18
ROOT
ATOM      1  C   UNL     1       0.972   0.344  -1.089  1.00  0.00     0.248 C 
ATOM      2  O   UNL     1       1.833  -0.299  -0.125  1.00  0.00    -0.344 OA
ATOM      3  C   UNL     1       2.658   0.724   0.491  1.00  0.00     0.169 C 
ATOM      4  C   UNL     1       2.021   2.015   0.122  1.00  0.00     0.007 C 
ATOM      5  C   UNL     1       1.062   1.797  -0.778  1.00  0.00     0.026 C 
ENDROOT
BRANCH   1   6
ATOM      6  N   UNL     1      -0.399  -0.122  -0.952  1.00  0.00    -0.270 N 
ATOM      7  C   UNL     1      -2.185  -0.907   0.426  1.00  0.00     0.031 C 
ATOM      8  C   UNL     1      -0.916  -0.508   0.271  1.00  0.00     0.103 C 
ATOM      9  C   UNL     1      -3.059  -0.924  -0.769  1.00  0.00     0.256 C 
ATOM     10  N   UNL     1      -2.475  -0.533  -1.938  1.00  0.00    -0.274 N 
ATOM     11  O   UNL     1      -4.236  -1.262  -0.709  1.00  0.00    -0.269 OA
ATOM     12  C   UNL     1      -1.185  -0.099  -2.095  1.00  0.00     0.330 C 
ATOM     13  O   UNL     1      -0.796   0.287  -3.195  1.00  0.00    -0.248 OA
ATOM     14  C   UNL     1      -2.783  -1.334   1.726  1.00  0.00     0.052 C 
ATOM     15  H   UNL     1      -3.059  -0.521  -2.759  1.00  0.00     0.175 HD
ENDBRANCH   1   6
BRANCH   3  16
ATOM     16  C   UNL     1       2.700   0.456   1.998  1.00  0.00     0.192 C 
BRANCH  16  17
ATOM     17  O   UNL     1       3.265  -0.831   2.253  1.00  0.00    -0.393 OA
ATOM     18  H   UNL     1       2.838  -1.440   1.620  1.00  0.00     0.210 HD
ENDBRANCH  16  17
ENDBRANCH   3  16
TORSDOF 3
