REMARK SMILES CN(N=O)C(=O)N[C@H]1C(O)O[C@H](CO)[C@@H](O)[C@@H]1O
REMARK SMILES IDX 8 1 9 2 11 3 12 4 15 5 17 6 7 7 5 8 6 9 2 11 1 12 3 13 4 14
REMARK SMILES IDX 10 15 18 17 16 19 13 21 14 22
REMARK H PARENT 7 10 10 16 18 18 16 20 14 23
ROOT
ATOM      1  C   UNL     1       0.002   0.107   0.938  1.00  0.00     0.171 C 
ATOM      2  C   UNL     1      -0.655   1.224   0.072  1.00  0.00     0.272 C 
ATOM      3  O   UNL     1      -2.032   0.979  -0.163  1.00  0.00    -0.342 OA
ATOM      4  C   UNL     1      -2.290  -0.222  -0.922  1.00  0.00     0.178 C 
ATOM      5  C   UNL     1      -1.340  -1.398  -0.594  1.00  0.00     0.176 C 
ATOM      6  C   UNL     1      -0.735  -1.246   0.802  1.00  0.00     0.173 C 
ENDROOT
BRANCH   1   7
ATOM      7  N   UNL     1       1.431  -0.049   0.621  1.00  0.00    -0.326 N 
ATOM      8  C   UNL     1       2.314   0.961   0.979  1.00  0.00     0.340 C 
ATOM      9  O   UNL     1       1.917   1.901   1.665  1.00  0.00    -0.247 OA
ATOM     10  H   UNL     1       1.550  -0.370  -0.335  1.00  0.00     0.166 HD
BRANCH   8  11
ATOM     11  N   UNL     1       3.618   0.769   0.513  1.00  0.00    -0.182 N 
ATOM     12  C   UNL     1       4.068  -0.436  -0.162  1.00  0.00     0.183 C 
BRANCH  11  13
ATOM     13  N   UNL     1       4.669   1.828   0.660  1.00  0.00     0.061 NA
ATOM     14  O   UNL     1       4.276   2.883   1.164  1.00  0.00    -0.125 OA
ENDBRANCH  11  13
ENDBRANCH   8  11
ENDBRANCH   1   7
BRANCH   2  15
ATOM     15  O   UNL     1       0.008   1.388  -1.181  1.00  0.00    -0.366 OA
ATOM     16  H   UNL     1      -0.086   2.333  -1.393  1.00  0.00     0.213 HD
ENDBRANCH   2  15
BRANCH   6  17
ATOM     17  O   UNL     1      -1.756  -1.393   1.795  1.00  0.00    -0.388 OA
ATOM     18  H   UNL     1      -1.319  -1.379   2.667  1.00  0.00     0.211 HD
ENDBRANCH   6  17
BRANCH   5  19
ATOM     19  O   UNL     1      -0.247  -1.474  -1.530  1.00  0.00    -0.388 OA
ATOM     20  H   UNL     1      -0.610  -1.339  -2.424  1.00  0.00     0.211 HD
ENDBRANCH   5  19
BRANCH   4  21
ATOM     21  C   UNL     1      -3.753  -0.591  -0.636  1.00  0.00     0.191 C 
BRANCH  21  22
ATOM     22  O   UNL     1      -4.605   0.475  -1.062  1.00  0.00    -0.394 OA
ATOM     23  H   UNL     1      -4.227   1.280  -0.658  1.00  0.00     0.210 HD
ENDBRANCH  21  22
ENDBRANCH   4  21
TORSDOF 8
