REMARK SMILES C/C(=C(\CCOC(=O)C(C)C)SS/C(CCOC(=O)C(C)C)=C(/C)N(C=O)Cc1cnc(C)nc1N)N(C=O)Cc1cnc(C)nc1N
REMARK SMILES IDX 13 1 14 2 23 3 24 4 15 5 16 6 17 7 18 8 19 9 20 10 21 11
REMARK SMILES IDX 22 12 25 13 28 14 29 15 30 16 35 17 31 18 34 19 32 20 33 21
REMARK SMILES IDX 36 22 26 25 27 26 12 27 3 28 2 29 1 30 4 31 5 32 6 33 7 34
REMARK SMILES IDX 8 35 9 36 10 37 11 38 37 39 40 40 41 41 47 42 42 43 46 44
REMARK SMILES IDX 43 45 44 46 45 47 48 48 38 51 39 52
REMARK H PARENT 36 23 36 24 48 49 48 50
ROOT
ATOM      1  S   UNL     1       0.324  -1.953   0.809  1.00  0.00    -0.055 SA
ENDROOT
BRANCH   1   2
ATOM      2  C   UNL     1      -1.186  -1.128   0.363  1.00  0.00     0.019 C 
ATOM      3  C   UNL     1      -2.317  -1.317   1.114  1.00  0.00     0.028 C 
ATOM      4  C   UNL     1      -3.677  -0.836   0.641  1.00  0.00     0.065 C 
BRANCH   2   5
ATOM      5  C   UNL     1      -1.206  -0.318  -0.929  1.00  0.00     0.087 C 
BRANCH   5   6
ATOM      6  C   UNL     1      -1.400  -1.187  -2.174  1.00  0.00     0.238 C 
BRANCH   6   7
ATOM      7  O   UNL     1      -1.404  -0.359  -3.346  1.00  0.00    -0.465 OA
BRANCH   7   8
ATOM      8  C   UNL     1      -2.601   0.204  -3.669  1.00  0.00     0.308 C 
ATOM      9  O   UNL     1      -3.665  -0.039  -3.118  1.00  0.00    -0.252 OA
BRANCH   8  10
ATOM     10  C   UNL     1      -2.456   1.165  -4.833  1.00  0.00     0.093 C 
ATOM     11  C   UNL     1      -1.339   2.169  -4.581  1.00  0.00     0.019 C 
ATOM     12  C   UNL     1      -2.241   0.388  -6.128  1.00  0.00     0.019 C 
ENDBRANCH   8  10
ENDBRANCH   7   8
ENDBRANCH   6   7
ENDBRANCH   5   6
ENDBRANCH   2   5
BRANCH   3  13
ATOM     13  N   UNL     1      -2.344  -1.967   2.374  1.00  0.00    -0.314 N 
BRANCH  13  14
ATOM     14  C   UNL     1      -3.338  -3.015   2.666  1.00  0.00     0.166 C 
BRANCH  14  15
ATOM     15  C   UNL     1      -4.398  -2.639   3.664  1.00  0.00     0.032 A 
ATOM     16  C   UNL     1      -5.539  -1.954   3.291  1.00  0.00     0.122 A 
ATOM     17  C   UNL     1      -4.329  -2.928   5.018  1.00  0.00     0.132 A 
ATOM     18  N   UNL     1      -6.493  -1.538   4.147  1.00  0.00    -0.241 NA
ATOM     19  N   UNL     1      -5.241  -2.513   5.912  1.00  0.00    -0.216 NA
ATOM     20  C   UNL     1      -6.285  -1.809   5.443  1.00  0.00     0.127 A 
ATOM     21  C   UNL     1      -7.301  -1.321   6.429  1.00  0.00     0.090 C 
BRANCH  17  22
ATOM     22  N   UNL     1      -3.296  -3.693   5.560  1.00  0.00    -0.383 N 
ATOM     23  H   UNL     1      -3.308  -4.639   5.190  1.00  0.00     0.158 HD
ATOM     24  H   UNL     1      -3.460  -3.723   6.567  1.00  0.00     0.158 HD
ENDBRANCH  17  22
ENDBRANCH  14  15
ENDBRANCH  13  14
BRANCH  13  25
ATOM     25  C   UNL     1      -1.470  -1.618   3.411  1.00  0.00     0.344 C 
ATOM     26  O   UNL     1      -0.674  -0.685   3.460  1.00  0.00    -0.278 OA
ENDBRANCH  13  25
ENDBRANCH   3  13
ENDBRANCH   1   2
BRANCH   1  27
ATOM     27  S   UNL     1       1.784  -1.211  -0.425  1.00  0.00    -0.055 SA
BRANCH  27  28
ATOM     28  C   UNL     1       2.447   0.242   0.352  1.00  0.00     0.019 C 
ATOM     29  C   UNL     1       3.353   0.991  -0.347  1.00  0.00     0.028 C 
ATOM     30  C   UNL     1       4.152   2.129   0.251  1.00  0.00     0.065 C 
BRANCH  28  31
ATOM     31  C   UNL     1       2.132   0.537   1.814  1.00  0.00     0.087 C 
BRANCH  31  32
ATOM     32  C   UNL     1       0.909   1.452   1.982  1.00  0.00     0.238 C 
BRANCH  32  33
ATOM     33  O   UNL     1       1.133   2.698   1.299  1.00  0.00    -0.465 OA
BRANCH  33  34
ATOM     34  C   UNL     1       0.022   3.300   0.783  1.00  0.00     0.308 C 
ATOM     35  O   UNL     1      -1.131   2.913   0.932  1.00  0.00    -0.252 OA
BRANCH  34  36
ATOM     36  C   UNL     1       0.424   4.528  -0.018  1.00  0.00     0.093 C 
ATOM     37  C   UNL     1       1.089   5.562   0.884  1.00  0.00     0.019 C 
ATOM     38  C   UNL     1      -0.793   5.129  -0.722  1.00  0.00     0.019 C 
ENDBRANCH  34  36
ENDBRANCH  33  34
ENDBRANCH  32  33
ENDBRANCH  31  32
ENDBRANCH  28  31
BRANCH  29  39
ATOM     39  N   UNL     1       3.543   0.831  -1.730  1.00  0.00    -0.314 N 
BRANCH  39  40
ATOM     40  C   UNL     1       4.889   0.598  -2.260  1.00  0.00     0.166 C 
BRANCH  40  41
ATOM     41  C   UNL     1       5.310  -0.835  -2.161  1.00  0.00     0.032 A 
ATOM     42  C   UNL     1       6.342  -1.293  -1.365  1.00  0.00     0.132 A 
ATOM     43  C   UNL     1       4.645  -1.815  -2.876  1.00  0.00     0.122 A 
ATOM     44  N   UNL     1       6.673  -2.591  -1.281  1.00  0.00    -0.216 NA
ATOM     45  N   UNL     1       4.954  -3.121  -2.838  1.00  0.00    -0.241 NA
ATOM     46  C   UNL     1       5.960  -3.460  -2.018  1.00  0.00     0.127 A 
ATOM     47  C   UNL     1       6.327  -4.909  -1.926  1.00  0.00     0.090 C 
BRANCH  42  48
ATOM     48  N   UNL     1       7.115  -0.441  -0.575  1.00  0.00    -0.383 N 
ATOM     49  H   UNL     1       7.583   0.269  -1.128  1.00  0.00     0.158 HD
ATOM     50  H   UNL     1       7.796  -1.031  -0.101  1.00  0.00     0.158 HD
ENDBRANCH  42  48
ENDBRANCH  40  41
ENDBRANCH  39  40
BRANCH  39  51
ATOM     51  C   UNL     1       2.555   1.289  -2.604  1.00  0.00     0.344 C 
ATOM     52  O   UNL     1       1.522   1.872  -2.303  1.00  0.00    -0.278 OA
ENDBRANCH  39  51
ENDBRANCH  29  39
ENDBRANCH  27  28
ENDBRANCH   1  27
TORSDOF 23
