REMARK SMILES CC(=O)N(c1onc(C)c1C)S(=O)(=O)c1ccc(N)cc1
REMARK SMILES IDX 12 1 13 2 14 3 4 4 2 5 3 6 1 7 5 8 10 9 6 10 8 11 7 12 11 13
REMARK SMILES IDX 9 14 15 15 16 16 21 17 17 18 20 19 18 20 19 21
REMARK H PARENT 19 22 19 23
ROOT
ATOM      1  S   UNL     1      -0.317   0.213   1.452  1.00  0.00     0.273 S 
ATOM      2  O   UNL     1       0.074   1.612   1.412  1.00  0.00    -0.200 OA
ATOM      3  O   UNL     1      -0.294  -0.512   2.705  1.00  0.00    -0.200 OA
ENDROOT
BRANCH   1   4
ATOM      4  N   UNL     1       0.586  -0.635   0.296  1.00  0.00    -0.168 N 
BRANCH   4   5
ATOM      5  C   UNL     1       0.284  -1.987  -0.030  1.00  0.00     0.240 C 
ATOM      6  O   UNL     1      -0.732  -2.553   0.362  1.00  0.00    -0.274 OA
ATOM      7  C   UNL     1       1.242  -2.712  -0.945  1.00  0.00     0.116 C 
ENDBRANCH   4   5
BRANCH   4   8
ATOM      8  C   UNL     1       2.013  -0.348   0.443  1.00  0.00     0.251 A 
ATOM      9  C   UNL     1       2.707   0.675  -0.169  1.00  0.00     0.038 A 
ATOM     10  O   UNL     1       2.871  -1.092   1.191  1.00  0.00    -0.337 OA
ATOM     11  C   UNL     1       4.042   0.492   0.287  1.00  0.00     0.086 A 
ATOM     12  N   UNL     1       4.147  -0.578   1.083  1.00  0.00    -0.082 NA
ATOM     13  C   UNL     1       2.197   1.733  -1.070  1.00  0.00     0.052 C 
ATOM     14  C   UNL     1       5.239   1.308  -0.024  1.00  0.00     0.071 C 
ENDBRANCH   4   8
ENDBRANCH   1   4
BRANCH   1  15
ATOM     15  C   UNL     1      -1.972   0.167   0.797  1.00  0.00     0.088 A 
ATOM     16  C   UNL     1      -2.303   1.001  -0.274  1.00  0.00     0.024 A 
ATOM     17  C   UNL     1      -2.936  -0.659   1.375  1.00  0.00     0.024 A 
ATOM     18  C   UNL     1      -3.608   0.994  -0.773  1.00  0.00     0.027 A 
ATOM     19  C   UNL     1      -4.236  -0.660   0.862  1.00  0.00     0.027 A 
ATOM     20  C   UNL     1      -4.596   0.200  -0.181  1.00  0.00     0.031 A 
BRANCH  20  21
ATOM     21  N   UNL     1      -5.865   0.108  -0.763  1.00  0.00    -0.399 N 
ATOM     22  H   UNL     1      -6.584  -0.229  -0.130  1.00  0.00     0.156 HD
ATOM     23  H   UNL     1      -6.154   0.944  -1.261  1.00  0.00     0.156 HD
ENDBRANCH  20  21
ENDBRANCH   1  15
TORSDOF 5
