REMARK SMILES Nc1cc(N)c(/N=N/c2ccc(S(N)(=O)=O)cc2)c(C(=O)O)c1
REMARK SMILES IDX 7 1 8 2 6 3 2 4 23 5 3 6 19 7 4 8 1 9 20 12 21 13 22 14 5 16
REMARK SMILES IDX 9 19 10 20 18 21 11 22 17 23 12 24 13 25 15 26 16 27 14 28
REMARK H PARENT 1 10 1 11 22 15 5 17 5 18 14 29 14 30
ROOT
ATOM      1  N   UNL     1      -0.859   0.469   0.192  1.00  0.00    -0.147 NA
ATOM      2  N   UNL     1       0.002  -0.377  -0.137  1.00  0.00    -0.150 NA
ENDROOT
BRANCH   1   3
ATOM      3  C   UNL     1      -2.153  -0.081   0.053  1.00  0.00     0.123 A 
ATOM      4  C   UNL     1      -4.766  -1.121  -0.283  1.00  0.00     0.034 A 
ATOM      5  C   UNL     1      -4.006  -1.465   0.833  1.00  0.00     0.043 A 
ATOM      6  C   UNL     1      -4.187  -0.315  -1.266  1.00  0.00     0.053 A 
ATOM      7  C   UNL     1      -2.730  -0.912   1.026  1.00  0.00     0.091 A 
ATOM      8  C   UNL     1      -2.885   0.188  -1.126  1.00  0.00     0.062 A 
BRANCH   4   9
ATOM      9  N   UNL     1      -5.999  -1.740  -0.514  1.00  0.00    -0.399 N 
ATOM     10  H   UNL     1      -6.612  -1.229  -1.143  1.00  0.00     0.156 HD
ATOM     11  H   UNL     1      -6.480  -2.048   0.326  1.00  0.00     0.156 HD
ENDBRANCH   4   9
BRANCH   7  12
ATOM     12  C   UNL     1      -2.035  -1.274   2.274  1.00  0.00     0.338 C 
ATOM     13  O   UNL     1      -2.076  -2.366   2.811  1.00  0.00    -0.246 OA
BRANCH  12  14
ATOM     14  O   UNL     1      -1.421  -0.231   2.857  1.00  0.00    -0.478 OA
ATOM     15  H   UNL     1      -1.060  -0.604   3.688  1.00  0.00     0.297 HD
ENDBRANCH  12  14
ENDBRANCH   7  12
BRANCH   8  16
ATOM     16  N   UNL     1      -2.404   1.112  -2.082  1.00  0.00    -0.397 N 
ATOM     17  H   UNL     1      -1.391   1.216  -2.030  1.00  0.00     0.156 HD
ATOM     18  H   UNL     1      -2.736   0.942  -3.026  1.00  0.00     0.156 HD
ENDBRANCH   8  16
ENDBRANCH   1   3
BRANCH   2  19
ATOM     19  C   UNL     1       1.309   0.134  -0.011  1.00  0.00     0.086 A 
ATOM     20  C   UNL     1       2.242  -0.177  -1.009  1.00  0.00     0.031 A 
ATOM     21  C   UNL     1       1.729   0.898   1.090  1.00  0.00     0.031 A 
ATOM     22  C   UNL     1       3.562   0.277  -0.927  1.00  0.00     0.024 A 
ATOM     23  C   UNL     1       3.046   1.358   1.184  1.00  0.00     0.024 A 
ATOM     24  C   UNL     1       3.958   1.036   0.176  1.00  0.00     0.082 A 
BRANCH  24  25
ATOM     25  S   UNL     1       5.627   1.625   0.293  1.00  0.00     0.238 S 
ATOM     26  O   UNL     1       5.623   2.858   1.042  1.00  0.00    -0.207 OA
ATOM     27  O   UNL     1       6.247   1.503  -1.006  1.00  0.00    -0.207 OA
BRANCH  25  28
ATOM     28  N   UNL     1       6.337   0.435   1.249  1.00  0.00    -0.225 NA
ATOM     29  H   UNL     1       5.666  -0.217   1.652  1.00  0.00     0.137 HD
ATOM     30  H   UNL     1       7.055  -0.043   0.702  1.00  0.00     0.137 HD
ENDBRANCH  25  28
ENDBRANCH  24  25
ENDBRANCH   2  19
TORSDOF 8
