REMARK SMILES CCc1nc(CC)nc(NS(=O)(=O)c2ccc(N)cc2)n1
REMARK SMILES IDX 11 1 12 2 13 3 10 4 9 6 3 7 21 8 4 9 5 10 8 11 2 12 1 13
REMARK SMILES IDX 6 14 7 15 14 16 15 17 20 18 16 19 19 20 17 21 18 22
REMARK H PARENT 10 5 18 23 18 24
ROOT
ATOM      1  S   UNL     1       1.828  -1.310  -1.913  1.00  0.00     0.264 S 
ATOM      2  O   UNL     1       1.315  -2.641  -1.670  1.00  0.00    -0.201 OA
ATOM      3  O   UNL     1       2.805  -1.085  -2.961  1.00  0.00    -0.201 OA
ENDROOT
BRANCH   1   4
ATOM      4  N   UNL     1       0.569  -0.275  -2.234  1.00  0.00    -0.247 N 
ATOM      5  H   UNL     1       0.434  -0.080  -3.218  1.00  0.00     0.183 HD
BRANCH   4   6
ATOM      6  C   UNL     1      -0.613  -0.444  -1.519  1.00  0.00     0.240 A 
ATOM      7  C   UNL     1      -2.815  -0.110  -1.492  1.00  0.00     0.134 A 
ATOM      8  N   UNL     1      -1.691  -0.108  -2.210  1.00  0.00    -0.197 NA
ATOM      9  N   UNL     1      -2.879  -0.367  -0.183  1.00  0.00    -0.218 NA
ATOM     10  C   UNL     1      -1.713  -0.644   0.408  1.00  0.00     0.134 A 
ATOM     11  N   UNL     1      -0.540  -0.670  -0.219  1.00  0.00    -0.197 NA
BRANCH   7  12
ATOM     12  C   UNL     1      -4.094   0.252  -2.195  1.00  0.00     0.074 C 
ATOM     13  C   UNL     1      -4.374   1.742  -2.095  1.00  0.00     0.012 C 
ENDBRANCH   7  12
BRANCH  10  14
ATOM     14  C   UNL     1      -1.715  -0.896   1.890  1.00  0.00     0.074 C 
ATOM     15  C   UNL     1      -1.295   0.346   2.661  1.00  0.00     0.012 C 
ENDBRANCH  10  14
ENDBRANCH   4   6
ENDBRANCH   1   4
BRANCH   1  16
ATOM     16  C   UNL     1       2.539  -0.668  -0.419  1.00  0.00     0.088 A 
ATOM     17  C   UNL     1       2.488  -1.415   0.759  1.00  0.00     0.024 A 
ATOM     18  C   UNL     1       3.150   0.588  -0.436  1.00  0.00     0.024 A 
ATOM     19  C   UNL     1       3.050  -0.894   1.927  1.00  0.00     0.027 A 
ATOM     20  C   UNL     1       3.708   1.096   0.739  1.00  0.00     0.027 A 
ATOM     21  C   UNL     1       3.707   0.341   1.917  1.00  0.00     0.031 A 
BRANCH  21  22
ATOM     22  N   UNL     1       4.158   0.907   3.115  1.00  0.00    -0.399 N 
ATOM     23  H   UNL     1       4.417   0.223   3.820  1.00  0.00     0.156 HD
ATOM     24  H   UNL     1       4.871   1.618   2.991  1.00  0.00     0.156 HD
ENDBRANCH  21  22
ENDBRANCH   1  16
TORSDOF 6
