REMARK SMILES Cc1cccc2c1NC(=O)C2(c1ccc(OS(=O)(=O)O)cc1)c1ccc(OS(=O)(=O)O)cc1
REMARK SMILES IDX 1 1 2 2 3 3 4 4 5 5 6 6 7 7 8 8 9 9 10 10 11 11 12 13 13 14
REMARK SMILES IDX 22 15 14 16 21 17 15 18 16 19 17 20 18 21 19 22 20 23 23 25
REMARK SMILES IDX 24 26 33 27 25 28 32 29 26 30 27 31 28 32 29 33 30 34 31 35
REMARK H PARENT 8 12 20 24 31 36
ROOT
ATOM      1  C   UNL     1      -0.825  -5.128  -0.809  1.00  0.00     0.046 C 
ATOM      2  C   UNL     1      -0.842  -3.931   0.088  1.00  0.00    -0.027 A 
ATOM      3  C   UNL     1      -1.277  -4.029   1.417  1.00  0.00     0.005 A 
ATOM      4  C   UNL     1      -1.298  -2.904   2.260  1.00  0.00     0.001 A 
ATOM      5  C   UNL     1      -0.881  -1.655   1.796  1.00  0.00     0.008 A 
ATOM      6  C   UNL     1      -0.440  -1.551   0.483  1.00  0.00     0.000 A 
ATOM      7  C   UNL     1      -0.433  -2.678  -0.343  1.00  0.00     0.049 A 
ATOM      8  N   UNL     1       0.022  -2.340  -1.607  1.00  0.00    -0.324 N 
ATOM      9  C   UNL     1       0.332  -0.990  -1.700  1.00  0.00     0.244 C 
ATOM     10  O   UNL     1       0.734  -0.452  -2.724  1.00  0.00    -0.273 OA
ATOM     11  C   UNL     1       0.065  -0.323  -0.288  1.00  0.00     0.126 C 
ATOM     12  H   UNL     1       0.115  -2.972  -2.388  1.00  0.00     0.170 HD
ENDROOT
BRANCH  11  13
ATOM     13  C   UNL     1      -1.060   0.744  -0.339  1.00  0.00    -0.023 A 
ATOM     14  C   UNL     1      -1.957   0.838  -1.416  1.00  0.00     0.009 A 
ATOM     15  C   UNL     1      -1.244   1.632   0.742  1.00  0.00     0.009 A 
ATOM     16  C   UNL     1      -2.989   1.782  -1.413  1.00  0.00     0.049 A 
ATOM     17  C   UNL     1      -2.279   2.573   0.746  1.00  0.00     0.049 A 
ATOM     18  C   UNL     1      -3.164   2.633  -0.325  1.00  0.00     0.145 A 
BRANCH  18  19
ATOM     19  O   UNL     1      -4.203   3.521  -0.411  1.00  0.00    -0.362 OA
BRANCH  19  20
ATOM     20  S   UNL     1      -5.156   3.849   0.872  1.00  0.00     0.446 S 
ATOM     21  O   UNL     1      -6.463   4.207   0.362  1.00  0.00    -0.158 OA
ATOM     22  O   UNL     1      -4.447   4.703   1.798  1.00  0.00    -0.158 OA
BRANCH  20  23
ATOM     23  O   UNL     1      -5.372   2.416   1.584  1.00  0.00    -0.254 OA
ATOM     24  H   UNL     1      -6.037   1.922   1.065  1.00  0.00     0.237 HD
ENDBRANCH  20  23
ENDBRANCH  19  20
ENDBRANCH  18  19
ENDBRANCH  11  13
BRANCH  11  25
ATOM     25  C   UNL     1       1.427   0.242   0.193  1.00  0.00    -0.023 A 
ATOM     26  C   UNL     1       2.234  -0.414   1.141  1.00  0.00     0.009 A 
ATOM     27  C   UNL     1       1.923   1.436  -0.375  1.00  0.00     0.009 A 
ATOM     28  C   UNL     1       3.474   0.111   1.517  1.00  0.00     0.049 A 
ATOM     29  C   UNL     1       3.160   1.963   0.002  1.00  0.00     0.049 A 
ATOM     30  C   UNL     1       3.938   1.284   0.932  1.00  0.00     0.145 A 
BRANCH  30  31
ATOM     31  O   UNL     1       5.162   1.756   1.320  1.00  0.00    -0.362 OA
BRANCH  31  32
ATOM     32  S   UNL     1       6.398   1.734   0.249  1.00  0.00     0.446 S 
ATOM     33  O   UNL     1       6.148   2.727  -0.776  1.00  0.00    -0.158 OA
ATOM     34  O   UNL     1       7.639   1.717   0.991  1.00  0.00    -0.158 OA
BRANCH  32  35
ATOM     35  O   UNL     1       6.258   0.304  -0.490  1.00  0.00    -0.254 OA
ATOM     36  H   UNL     1       5.588   0.398  -1.197  1.00  0.00     0.237 HD
ENDBRANCH  32  35
ENDBRANCH  31  32
ENDBRANCH  30  31
ENDBRANCH  11  25
TORSDOF 8
