REMARK SMILES CCN1CCCC1CNC(=O)c1cc(S(N)(=O)=O)ccc1OC
REMARK SMILES IDX 9 1 10 2 11 3 8 5 7 6 3 7 4 8 5 9 6 10 2 11 1 12 12 13 21 14
REMARK SMILES IDX 13 15 20 16 14 17 19 18 22 19 23 20 15 21 17 22 18 23 16 24
REMARK H PARENT 9 4 16 25 16 26
ROOT
ATOM      1  N   UNL     1      -0.209  -0.534  -0.410  1.00  0.00    -0.350 N 
ATOM      2  C   UNL     1       0.694  -0.412   0.618  1.00  0.00     0.255 C 
ATOM      3  O   UNL     1       0.350  -0.405   1.797  1.00  0.00    -0.269 OA
ATOM      4  H   UNL     1       0.147  -0.517  -1.361  1.00  0.00     0.163 HD
ENDROOT
BRANCH   1   5
ATOM      5  C   UNL     1      -1.646  -0.612  -0.211  1.00  0.00     0.135 C 
BRANCH   5   6
ATOM      6  C   UNL     1      -2.365   0.706  -0.585  1.00  0.00     0.076 C 
ATOM      7  N   UNL     1      -3.848   0.738  -0.564  1.00  0.00    -0.299 NA
ATOM      8  C   UNL     1      -4.256   1.543   0.588  1.00  0.00     0.085 C 
ATOM      9  C   UNL     1      -3.208   2.636   0.606  1.00  0.00     0.017 C 
ATOM     10  C   UNL     1      -1.932   1.868   0.327  1.00  0.00     0.022 C 
BRANCH   7  11
ATOM     11  C   UNL     1      -4.523  -0.552  -0.664  1.00  0.00     0.081 C 
ATOM     12  C   UNL     1      -6.031  -0.414  -0.848  1.00  0.00     0.021 C 
ENDBRANCH   7  11
ENDBRANCH   5   6
ENDBRANCH   1   5
BRANCH   2  13
ATOM     13  C   UNL     1       2.149  -0.288   0.261  1.00  0.00     0.083 A 
ATOM     14  C   UNL     1       2.661  -0.257  -1.057  1.00  0.00     0.131 A 
ATOM     15  C   UNL     1       3.038  -0.197   1.348  1.00  0.00     0.039 A 
ATOM     16  C   UNL     1       4.048  -0.146  -1.251  1.00  0.00     0.048 A 
ATOM     17  C   UNL     1       4.412  -0.092   1.131  1.00  0.00     0.083 A 
ATOM     18  C   UNL     1       4.923  -0.064  -0.163  1.00  0.00     0.025 A 
BRANCH  14  19
ATOM     19  O   UNL     1       1.766  -0.340  -2.095  1.00  0.00    -0.496 OA
ATOM     20  C   UNL     1       2.268  -0.238  -3.424  1.00  0.00     0.278 C 
ENDBRANCH  14  19
BRANCH  17  21
ATOM     21  S   UNL     1       5.499   0.025   2.520  1.00  0.00     0.238 S 
ATOM     22  O   UNL     1       4.978   1.010   3.436  1.00  0.00    -0.207 OA
ATOM     23  O   UNL     1       6.865   0.042   2.052  1.00  0.00    -0.207 OA
BRANCH  21  24
ATOM     24  N   UNL     1       5.296  -1.470   3.255  1.00  0.00    -0.225 NA
ATOM     25  H   UNL     1       6.178  -1.982   3.253  1.00  0.00     0.137 HD
ATOM     26  H   UNL     1       4.891  -1.349   4.185  1.00  0.00     0.137 HD
ENDBRANCH  21  24
ENDBRANCH  17  21
ENDBRANCH   2  13
TORSDOF 7
