REMARK SMILES CNS(=O)(=O)Cc1ccc2[nH]cc(CCN(C)C)c2c1
REMARK SMILES IDX 7 1 20 2 19 3 10 4 11 5 12 6 13 7 9 8 8 9 6 11 3 12 4 13
REMARK SMILES IDX 5 14 2 15 1 16 14 18 15 19 16 20 17 21 18 22
REMARK H PARENT 11 10 2 17
ROOT
ATOM      1  C   UNL     1       1.789   0.854   0.811  1.00  0.00    -0.031 A 
ATOM      2  C   UNL     1       0.686   0.059   0.447  1.00  0.00     0.015 A 
ATOM      3  C   UNL     1       0.037   0.264  -0.790  1.00  0.00     0.003 A 
ATOM      4  C   UNL     1       0.508   1.276  -1.625  1.00  0.00     0.046 A 
ATOM      5  N   UNL     1      -0.275   1.264  -2.755  1.00  0.00    -0.361 N 
ATOM      6  C   UNL     1      -1.214   0.273  -2.669  1.00  0.00     0.087 A 
ATOM      7  C   UNL     1      -1.070  -0.363  -1.451  1.00  0.00    -0.021 A 
ATOM      8  C   UNL     1       1.585   2.099  -1.284  1.00  0.00     0.027 A 
ATOM      9  C   UNL     1       2.211   1.873  -0.053  1.00  0.00     0.007 A 
ATOM     10  H   UNL     1      -0.160   1.890  -3.540  1.00  0.00     0.166 HD
ENDROOT
BRANCH   1  11
ATOM     11  C   UNL     1       2.495   0.640   2.128  1.00  0.00     0.189 C 
BRANCH  11  12
ATOM     12  S   UNL     1       3.335  -0.958   2.183  1.00  0.00     0.215 S 
ATOM     13  O   UNL     1       4.332  -0.900   3.231  1.00  0.00    -0.212 OA
ATOM     14  O   UNL     1       2.338  -2.008   2.170  1.00  0.00    -0.212 OA
BRANCH  12  15
ATOM     15  N   UNL     1       4.147  -1.059   0.716  1.00  0.00    -0.218 NA
ATOM     16  C   UNL     1       5.302  -0.195   0.495  1.00  0.00     0.120 C 
ATOM     17  H   UNL     1       3.511  -1.180  -0.076  1.00  0.00     0.140 HD
ENDBRANCH  12  15
ENDBRANCH  11  12
ENDBRANCH   1  11
BRANCH   7  18
ATOM     18  C   UNL     1      -1.886  -1.519  -0.948  1.00  0.00     0.053 C 
BRANCH  18  19
ATOM     19  C   UNL     1      -2.739  -1.216   0.300  1.00  0.00     0.088 C 
BRANCH  19  20
ATOM     20  N   UNL     1      -4.145  -0.839   0.033  1.00  0.00    -0.309 NA
ATOM     21  C   UNL     1      -4.892  -0.790   1.293  1.00  0.00     0.104 C 
ATOM     22  C   UNL     1      -4.245   0.453  -0.647  1.00  0.00     0.104 C 
ENDBRANCH  19  20
ENDBRANCH  18  19
ENDBRANCH   7  18
TORSDOF 6
