REMARK SMILES Nc1c2c(nc3ccccc13)CCCC2
REMARK SMILES IDX 1 1 2 4 3 5 11 6 15 7 4 8 10 9 6 10 14 11 12 12 5 13 9 14
REMARK SMILES IDX 7 15 13 16 8 17
REMARK H PARENT 1 2 1 3
ROOT
ATOM      1  N   UNL     1       0.484   2.587   0.037  1.00  0.00    -0.398 N 
ATOM      2  H   UNL     1      -0.310   3.052   0.464  1.00  0.00     0.156 HD
ATOM      3  H   UNL     1       0.544   2.829  -0.951  1.00  0.00     0.156 HD
ENDROOT
BRANCH   1   4
ATOM      4  C   UNL     1       0.465   1.179   0.194  1.00  0.00     0.046 A 
ATOM      5  C   UNL     1      -0.743   0.481   0.303  1.00  0.00    -0.003 A 
ATOM      6  C   UNL     1       1.670   0.447   0.032  1.00  0.00     0.023 A 
ATOM      7  C   UNL     1      -2.104   1.117   0.420  1.00  0.00     0.039 C 
ATOM      8  C   UNL     1      -0.685  -0.914   0.368  1.00  0.00     0.046 A 
ATOM      9  C   UNL     1       2.930   1.063  -0.158  1.00  0.00     0.012 A 
ATOM     10  C   UNL     1       1.604  -0.962   0.084  1.00  0.00     0.073 A 
ATOM     11  C   UNL     1      -3.154   0.367  -0.408  1.00  0.00     0.005 C 
ATOM     12  C   UNL     1      -1.965  -1.677   0.591  1.00  0.00     0.056 C 
ATOM     13  N   UNL     1       0.455  -1.628   0.265  1.00  0.00    -0.252 NA
ATOM     14  C   UNL     1       4.092   0.307  -0.301  1.00  0.00     0.001 A 
ATOM     15  C   UNL     1       2.776  -1.694  -0.058  1.00  0.00     0.029 A 
ATOM     16  C   UNL     1      -3.068  -1.163  -0.329  1.00  0.00     0.007 C 
ATOM     17  C   UNL     1       4.014  -1.078  -0.252  1.00  0.00     0.002 A 
ENDBRANCH   1   4
TORSDOF 1
