REMARK SMILES COc1cc(C)c2c(Oc3cccc(C(F)(F)F)c3)c(OC)cc(NC(C)CCCN)c2n1
REMARK SMILES IDX 25 1 24 3 3 4 33 5 4 6 32 7 5 8 7 9 23 10 8 11 20 12 6 13
REMARK SMILES IDX 2 14 1 15 9 16 10 17 19 18 11 19 14 20 12 21 13 22 15 23
REMARK SMILES IDX 16 24 17 25 18 26 21 27 22 28 26 29 27 30 28 31 29 32 30 33
REMARK SMILES IDX 31 34
REMARK H PARENT 25 2 31 35 31 36
ROOT
ATOM      1  N   UNL     1      -2.411  -0.353  -0.896  1.00  0.00    -0.381 N 
ATOM      2  H   UNL     1      -2.454  -0.187  -1.910  1.00  0.00     0.160 HD
ENDROOT
BRANCH   1   3
ATOM      3  C   UNL     1      -1.113   0.084  -0.491  1.00  0.00     0.065 A 
ATOM      4  C   UNL     1       0.088   1.149  -3.694  1.00  0.00     0.213 A 
ATOM      5  N   UNL     1      -0.709   0.655  -2.733  1.00  0.00    -0.211 NA
ATOM      6  C   UNL     1       1.367   1.602  -3.461  1.00  0.00     0.072 A 
ATOM      7  C   UNL     1      -0.233   0.586  -1.471  1.00  0.00     0.102 A 
ATOM      8  C   UNL     1       1.877   1.546  -2.159  1.00  0.00    -0.032 A 
ATOM      9  C   UNL     1       1.069   1.005  -1.107  1.00  0.00     0.052 A 
ATOM     10  C   UNL     1      -0.721  -0.025   0.849  1.00  0.00     0.078 A 
ATOM     11  C   UNL     1       1.444   0.846   0.265  1.00  0.00     0.179 A 
ATOM     12  C   UNL     1       0.550   0.368   1.244  1.00  0.00     0.164 A 
ATOM     13  C   UNL     1       3.273   2.069  -1.946  1.00  0.00     0.045 C 
BRANCH   4  14
ATOM     14  O   UNL     1      -0.365   1.231  -4.995  1.00  0.00    -0.481 OA
ATOM     15  C   UNL     1      -1.695   0.748  -5.154  1.00  0.00     0.280 C 
ENDBRANCH   4  14
BRANCH  11  16
ATOM     16  O   UNL     1       2.714   1.226   0.663  1.00  0.00    -0.453 OA
BRANCH  16  17
ATOM     17  C   UNL     1       3.586   0.224   1.042  1.00  0.00     0.128 A 
ATOM     18  C   UNL     1       4.551   0.585   1.985  1.00  0.00     0.060 A 
ATOM     19  C   UNL     1       3.584  -1.066   0.505  1.00  0.00     0.047 A 
ATOM     20  C   UNL     1       5.502  -0.347   2.428  1.00  0.00     0.059 A 
ATOM     21  C   UNL     1       4.532  -1.998   0.930  1.00  0.00     0.004 A 
ATOM     22  C   UNL     1       5.486  -1.641   1.885  1.00  0.00     0.013 A 
BRANCH  20  23
ATOM     23  C   UNL     1       6.547   0.047   3.439  1.00  0.00     0.416 C 
ATOM     24  F   UNL     1       6.928  -0.985   4.243  1.00  0.00    -0.166 F 
ATOM     25  F   UNL     1       6.138   1.038   4.279  1.00  0.00    -0.166 F 
ATOM     26  F   UNL     1       7.688   0.503   2.852  1.00  0.00    -0.166 F 
ENDBRANCH  20  23
ENDBRANCH  16  17
ENDBRANCH  11  16
BRANCH  12  27
ATOM     27  O   UNL     1       1.009   0.334   2.535  1.00  0.00    -0.493 OA
ATOM     28  C   UNL     1       0.153  -0.216   3.526  1.00  0.00     0.278 C 
ENDBRANCH  12  27
ENDBRANCH   1   3
BRANCH   1  29
ATOM     29  C   UNL     1      -3.559   0.260  -0.209  1.00  0.00     0.076 C 
ATOM     30  C   UNL     1      -3.714   1.725  -0.630  1.00  0.00     0.031 C 
BRANCH  29  31
ATOM     31  C   UNL     1      -4.830  -0.522  -0.587  1.00  0.00     0.026 C 
BRANCH  31  32
ATOM     32  C   UNL     1      -4.804  -2.014  -0.226  1.00  0.00     0.017 C 
BRANCH  32  33
ATOM     33  C   UNL     1      -4.489  -2.330   1.236  1.00  0.00     0.077 C 
BRANCH  33  34
ATOM     34  N   UNL     1      -5.420  -1.673   2.148  1.00  0.00    -0.330 NA
ATOM     35  H   UNL     1      -6.371  -1.971   1.933  1.00  0.00     0.118 HD
ATOM     36  H   UNL     1      -5.235  -1.989   3.099  1.00  0.00     0.118 HD
ENDBRANCH  33  34
ENDBRANCH  32  33
ENDBRANCH  31  32
ENDBRANCH  29  31
ENDBRANCH   1  29
TORSDOF 11
