REMARK SMILES C=CCN1CCc2nc(N)sc2CC1
REMARK SMILES IDX 6 1 7 2 9 3 8 4 11 5 12 6 10 7 13 10 5 12 4 13 14 14 3 16
REMARK SMILES IDX 2 17 1 18
REMARK H PARENT 10 8 10 9
REMARK Flexibility Score:   15.900
ROOT
ATOM      1  C   UNL     1       0.653   1.527  -0.981  1.00  0.00     0.073 C 
ENDROOT
BRANCH   1   2
ATOM      2  C   UNL     1       1.777   0.785  -0.346  1.00  0.00     0.058 A 
ATOM      3  C   UNL     1       3.718   0.651   0.698  1.00  0.00     0.180 A 
ATOM      4  N   UNL     1       2.834   1.485   0.211  1.00  0.00    -0.225 NA
ATOM      5  S   UNL     1       3.324  -1.013   0.545  1.00  0.00    -0.102 S 
ATOM      6  C   UNL     1       1.873  -0.588  -0.251  1.00  0.00     0.031 A 
BRANCH   3   7
ATOM      7  N   UNL     1       4.849   1.051   1.302  1.00  0.00    -0.375 N 
ATOM      8  H   UNL     1       5.256   0.417   1.978  1.00  0.00     0.159 HD
ATOM      9  H   UNL     1       4.843   2.019   1.603  1.00  0.00     0.159 HD
ENDBRANCH   3   7
BRANCH   6  10
ATOM     10  C   UNL     1       0.901  -1.605  -0.746  1.00  0.00     0.064 CG0
ATOM     11  G   UNL     1      -0.532  -1.340  -0.250  1.00  0.00     0.000 G0
ENDBRANCH   6  10
ENDBRANCH   1   2
BRANCH   1  12
ATOM     12  C   UNL     1      -0.725   1.121  -0.434  1.00  0.00     0.091 C 
BRANCH  12  13
ATOM     13  N   UNL     1      -1.211  -0.196  -0.898  1.00  0.00    -0.299 NA
BRANCH  13  14
ATOM     14  C   UNL     1      -0.532  -1.340  -0.250  1.00  0.00     0.090 CG0
ATOM     15  G   UNL     1       0.901  -1.605  -0.746  1.00  0.00     0.000 G0
ENDBRANCH  13  14
BRANCH  13  16
ATOM     16  C   UNL     1      -2.674  -0.310  -0.778  1.00  0.00     0.111 C 
BRANCH  16  17
ATOM     17  C   UNL     1      -3.217  -0.284   0.625  1.00  0.00    -0.019 C 
ATOM     18  C   UNL     1      -3.902  -1.287   1.191  1.00  0.00     0.005 C 
ENDBRANCH  16  17
ENDBRANCH  13  16
ENDBRANCH  12  13
ENDBRANCH   1  12
TORSDOF 3
