REMARK SMILES O=C(NCCS(=O)(=O)O)c1cccs1
REMARK SMILES IDX 5 1 6 2 7 3 8 4 9 5 4 7 3 8 2 9 1 10 10 12 11 13 14 14 12 15
REMARK SMILES IDX 13 16
REMARK H PARENT 9 6 3 11
ROOT
ATOM      1  C   UNL     1       2.646   0.263  -0.649  1.00  0.00     0.188 C 
ENDROOT
BRANCH   1   2
ATOM      2  S   UNL     1       3.112  -0.132   1.022  1.00  0.00     0.266 S 
ATOM      3  O   UNL     1       2.033   0.220   1.917  1.00  0.00    -0.200 OA
ATOM      4  O   UNL     1       3.767  -1.419   1.056  1.00  0.00    -0.200 OA
BRANCH   2   5
ATOM      5  O   UNL     1       4.286   0.962   1.196  1.00  0.00    -0.285 OA
ATOM      6  H   UNL     1       5.096   0.496   1.499  1.00  0.00     0.234 HD
ENDBRANCH   2   5
ENDBRANCH   1   2
BRANCH   1   7
ATOM      7  C   UNL     1       1.457  -0.574  -1.080  1.00  0.00     0.135 C 
BRANCH   7   8
ATOM      8  N   UNL     1       0.207  -0.124  -0.495  1.00  0.00    -0.350 N 
ATOM      9  C   UNL     1      -1.012  -0.435  -1.071  1.00  0.00     0.261 C 
ATOM     10  O   UNL     1      -1.077  -0.954  -2.184  1.00  0.00    -0.268 OA
ATOM     11  H   UNL     1       0.180   0.111   0.497  1.00  0.00     0.163 HD
BRANCH   9  12
ATOM     12  C   UNL     1      -2.194  -0.119  -0.277  1.00  0.00     0.092 A 
ATOM     13  C   UNL     1      -3.512  -0.339  -0.638  1.00  0.00     0.025 A 
ATOM     14  S   UNL     1      -2.095   0.597   1.278  1.00  0.00    -0.139 S 
ATOM     15  C   UNL     1      -4.434   0.080   0.363  1.00  0.00     0.012 A 
ATOM     16  C   UNL     1      -3.794   0.608   1.461  1.00  0.00     0.065 A 
ENDBRANCH   9  12
ENDBRANCH   7   8
ENDBRANCH   1   7
TORSDOF 5
