REMARK SMILES CCOCCN(Cc1ccc(CN(CCOCC)C(=O)C(Cl)Cl)cc1)C(=O)C(Cl)Cl
REMARK SMILES IDX 8 1 9 2 10 3 11 4 24 5 25 6 7 7 6 8 5 9 4 10 3 11 2 12 1 13
REMARK SMILES IDX 26 14 27 15 28 16 29 17 30 18 12 19 13 20 14 21 15 22 16 23
REMARK SMILES IDX 17 24 18 25 19 26 20 27 21 28 22 29 23 30
REMARK H PARENT
ROOT
ATOM      1  C   UNL     1       1.594  -1.257  -1.195  1.00  0.00    -0.029 A 
ATOM      2  C   UNL     1       1.270   0.039  -1.613  1.00  0.00     0.006 A 
ATOM      3  C   UNL     1      -0.022   0.538  -1.439  1.00  0.00     0.006 A 
ATOM      4  C   UNL     1      -1.014  -0.247  -0.833  1.00  0.00    -0.029 A 
ATOM      5  C   UNL     1      -0.702  -1.562  -0.462  1.00  0.00     0.006 A 
ATOM      6  C   UNL     1       0.590  -2.061  -0.638  1.00  0.00     0.006 A 
ENDROOT
BRANCH   1   7
ATOM      7  C   UNL     1       3.004  -1.782  -1.347  1.00  0.00     0.155 C 
BRANCH   7   8
ATOM      8  N   UNL     1       3.624  -2.114  -0.055  1.00  0.00    -0.334 N 
BRANCH   8   9
ATOM      9  C   UNL     1       3.899  -0.980   0.857  1.00  0.00     0.148 C 
BRANCH   9  10
ATOM     10  C   UNL     1       5.041  -0.068   0.380  1.00  0.00     0.181 C 
BRANCH  10  11
ATOM     11  O   UNL     1       4.593   0.877  -0.598  1.00  0.00    -0.380 OA
BRANCH  11  12
ATOM     12  C   UNL     1       4.061   2.080  -0.041  1.00  0.00     0.157 C 
ATOM     13  C   UNL     1       5.171   3.082   0.223  1.00  0.00     0.035 C 
ENDBRANCH  11  12
ENDBRANCH  10  11
ENDBRANCH   9  10
ENDBRANCH   8   9
BRANCH   8  14
ATOM     14  C   UNL     1       3.913  -3.457   0.194  1.00  0.00     0.256 C 
ATOM     15  O   UNL     1       3.644  -4.322  -0.652  1.00  0.00    -0.272 OA
BRANCH  14  16
ATOM     16  C   UNL     1       4.540  -3.929   1.509  1.00  0.00     0.260 C 
ATOM     17  Cl  UNL     1       3.424  -3.698   2.866  1.00  0.00    -0.095 Cl
ATOM     18  Cl  UNL     1       6.135  -3.208   1.782  1.00  0.00    -0.095 Cl
ENDBRANCH  14  16
ENDBRANCH   8  14
ENDBRANCH   7   8
ENDBRANCH   1   7
BRANCH   4  19
ATOM     19  C   UNL     1      -2.395   0.327  -0.620  1.00  0.00     0.155 C 
BRANCH  19  20
ATOM     20  N   UNL     1      -2.989  -0.036   0.674  1.00  0.00    -0.334 N 
BRANCH  20  21
ATOM     21  C   UNL     1      -4.301  -0.698   0.617  1.00  0.00     0.148 C 
BRANCH  21  22
ATOM     22  C   UNL     1      -5.458   0.298   0.457  1.00  0.00     0.181 C 
BRANCH  22  23
ATOM     23  O   UNL     1      -5.400   0.885  -0.847  1.00  0.00    -0.380 OA
BRANCH  23  24
ATOM     24  C   UNL     1      -6.248   2.023  -0.996  1.00  0.00     0.157 C 
ATOM     25  C   UNL     1      -7.721   1.652  -0.998  1.00  0.00     0.035 C 
ENDBRANCH  23  24
ENDBRANCH  22  23
ENDBRANCH  21  22
ENDBRANCH  20  21
BRANCH  20  26
ATOM     26  C   UNL     1      -2.622   0.540   1.900  1.00  0.00     0.256 C 
ATOM     27  O   UNL     1      -3.357   0.399   2.886  1.00  0.00    -0.272 OA
BRANCH  26  28
ATOM     28  C   UNL     1      -1.320   1.351   1.985  1.00  0.00     0.260 C 
ATOM     29  Cl  UNL     1      -1.691   3.059   1.654  1.00  0.00    -0.095 Cl
ATOM     30  Cl  UNL     1      -0.587   1.187   3.603  1.00  0.00    -0.095 Cl
ENDBRANCH  26  28
ENDBRANCH  20  26
ENDBRANCH  19  20
ENDBRANCH   4  19
TORSDOF 16
