REMARK SMILES CCOC(=O)[C@@H](N)Cc1ccc(-c2cc(O[C@H](c3ccc(Cl)cc3-n3ccc(C)n3)C(F)(F)F)nc(N)n2)cc1
REMARK SMILES IDX 9 1 10 2 11 3 12 4 39 5 40 6 8 7 6 8 4 9 5 10 3 11 2 12 1 13
REMARK SMILES IDX 7 14 13 17 38 18 14 19 36 20 15 21 35 22 37 23 16 26 17 27
REMARK SMILES IDX 18 28 24 29 19 30 23 31 20 32 21 33 22 34 25 35 26 36 30 37
REMARK SMILES IDX 27 38 28 39 29 40 31 41 32 42 33 43 34 44
REMARK H PARENT 7 15 7 16 37 24 37 25
ROOT
ATOM      1  C   UNL     1       4.410  -0.863  -2.284  1.00  0.00    -0.046 A 
ATOM      2  C   UNL     1       3.323  -1.571  -1.762  1.00  0.00     0.004 A 
ATOM      3  C   UNL     1       2.065  -0.965  -1.658  1.00  0.00     0.010 A 
ATOM      4  C   UNL     1       1.857   0.363  -2.072  1.00  0.00     0.000 A 
ATOM      5  C   UNL     1       2.960   1.059  -2.597  1.00  0.00     0.010 A 
ATOM      6  C   UNL     1       4.220   0.460  -2.697  1.00  0.00     0.004 A 
ENDROOT
BRANCH   1   7
ATOM      7  C   UNL     1       5.770  -1.513  -2.392  1.00  0.00     0.066 C 
BRANCH   7   8
ATOM      8  C   UNL     1       6.693  -1.185  -1.206  1.00  0.00     0.166 C 
BRANCH   8   9
ATOM      9  C   UNL     1       6.154  -1.856   0.064  1.00  0.00     0.323 C 
ATOM     10  O   UNL     1       6.007  -3.068   0.190  1.00  0.00    -0.250 OA
BRANCH   9  11
ATOM     11  O   UNL     1       5.876  -0.927   1.021  1.00  0.00    -0.465 OA
BRANCH  11  12
ATOM     12  C   UNL     1       5.383  -1.441   2.266  1.00  0.00     0.229 C 
ATOM     13  C   UNL     1       6.536  -1.863   3.158  1.00  0.00     0.049 C 
ENDBRANCH  11  12
ENDBRANCH   9  11
ENDBRANCH   8   9
BRANCH   8  14
ATOM     14  N   UNL     1       8.072  -1.673  -1.455  1.00  0.00    -0.318 NA
ATOM     15  H   UNL     1       8.052  -2.695  -1.489  1.00  0.00     0.119 HD
ATOM     16  H   UNL     1       8.386  -1.362  -2.373  1.00  0.00     0.119 HD
ENDBRANCH   8  14
ENDBRANCH   7   8
ENDBRANCH   1   7
BRANCH   4  17
ATOM     17  C   UNL     1       0.533   1.008  -1.984  1.00  0.00     0.080 A 
ATOM     18  N   UNL     1       0.203   1.812  -3.019  1.00  0.00    -0.213 NA
ATOM     19  C   UNL     1      -0.327   0.805  -0.926  1.00  0.00     0.097 A 
ATOM     20  C   UNL     1      -0.993   2.400  -2.990  1.00  0.00     0.223 A 
ATOM     21  C   UNL     1      -1.533   1.453  -1.006  1.00  0.00     0.219 A 
ATOM     22  N   UNL     1      -1.892   2.246  -2.021  1.00  0.00    -0.178 NA
BRANCH  20  23
ATOM     23  N   UNL     1      -1.343   3.187  -4.065  1.00  0.00    -0.368 N 
ATOM     24  H   UNL     1      -2.346   3.188  -4.188  1.00  0.00     0.159 HD
ATOM     25  H   UNL     1      -0.785   2.936  -4.871  1.00  0.00     0.159 HD
ENDBRANCH  20  23
BRANCH  21  26
ATOM     26  O   UNL     1      -2.401   1.271   0.049  1.00  0.00    -0.459 OA
BRANCH  26  27
ATOM     27  C   UNL     1      -3.728   1.792  -0.155  1.00  0.00     0.312 C 
BRANCH  27  28
ATOM     28  C   UNL     1      -4.351   1.983   1.238  1.00  0.00     0.028 A 
ATOM     29  C   UNL     1      -4.959   0.999   2.057  1.00  0.00     0.073 A 
ATOM     30  C   UNL     1      -4.403   3.329   1.688  1.00  0.00     0.012 A 
ATOM     31  C   UNL     1      -5.682   1.399   3.207  1.00  0.00     0.049 A 
ATOM     32  C   UNL     1      -5.080   3.700   2.852  1.00  0.00     0.021 A 
ATOM     33  C   UNL     1      -5.733   2.733   3.598  1.00  0.00     0.043 A 
ATOM     34  Cl  UNL     1      -6.582   3.183   5.026  1.00  0.00    -0.084 Cl
BRANCH  29  35
ATOM     35  N   UNL     1      -4.888  -0.410   1.844  1.00  0.00    -0.240 N 
ATOM     36  C   UNL     1      -3.851  -1.154   1.335  1.00  0.00     0.115 A 
ATOM     37  N   UNL     1      -5.892  -1.217   2.278  1.00  0.00    -0.173 NA
ATOM     38  C   UNL     1      -4.253  -2.469   1.331  1.00  0.00     0.045 A 
ATOM     39  C   UNL     1      -5.530  -2.453   1.921  1.00  0.00     0.060 A 
ATOM     40  C   UNL     1      -6.429  -3.601   2.190  1.00  0.00     0.069 C 
ENDBRANCH  29  35
ENDBRANCH  27  28
BRANCH  27  41
ATOM     41  C   UNL     1      -4.584   1.003  -1.179  1.00  0.00     0.429 C 
ATOM     42  F   UNL     1      -4.496   1.532  -2.427  1.00  0.00    -0.167 F 
ATOM     43  F   UNL     1      -4.212  -0.294  -1.277  1.00  0.00    -0.167 F 
ATOM     44  F   UNL     1      -5.901   1.022  -0.855  1.00  0.00    -0.167 F 
ENDBRANCH  27  41
ENDBRANCH  26  27
ENDBRANCH  21  26
ENDBRANCH   4  17
TORSDOF 13
