REMARK SMILES CC1CN(c2cc3c(cc2F)c(=O)c(C(=O)O)cn3-c2ccc(F)cc2F)CCN1
REMARK SMILES IDX 5 1 10 2 11 3 9 4 8 5 12 6 13 7 14 8 18 9 19 10 7 11 6 12
REMARK SMILES IDX 4 13 2 14 3 15 30 16 29 17 28 18 1 19 20 21 26 22 21 23
REMARK SMILES IDX 25 24 22 25 23 26 27 27 24 28 15 29 16 30 17 31
REMARK H PARENT 30 20 17 32
ROOT
ATOM      1  C   UNL     1       1.263  -0.714  -0.697  1.00  0.00     0.075 A 
ATOM      2  C   UNL     1       1.277  -2.022  -1.220  1.00  0.00     0.147 A 
ATOM      3  F   UNL     1       2.430  -2.597  -1.600  1.00  0.00    -0.205 F 
ATOM      4  C   UNL     1       0.125  -2.794  -1.337  1.00  0.00     0.055 A 
ATOM      5  C   UNL     1      -1.104  -2.268  -0.939  1.00  0.00     0.050 A 
ATOM      6  C   UNL     1      -2.316  -3.116  -1.044  1.00  0.00     0.204 C 
ATOM      7  O   UNL     1      -2.255  -4.202  -1.608  1.00  0.00    -0.288 OA
ATOM      8  C   UNL     1      -3.570  -2.575  -0.481  1.00  0.00     0.124 C 
ATOM      9  C   UNL     1      -3.562  -1.301  -0.061  1.00  0.00     0.111 C 
ATOM     10  N   UNL     1      -2.476  -0.426  -0.058  1.00  0.00    -0.313 N 
ATOM     11  C   UNL     1      -1.199  -0.957  -0.446  1.00  0.00     0.059 A 
ATOM     12  C   UNL     1      -0.002  -0.217  -0.316  1.00  0.00     0.056 A 
ENDROOT
BRANCH   1  13
ATOM     13  N   UNL     1       2.408   0.062  -0.559  1.00  0.00    -0.366 N 
ATOM     14  C   UNL     1       3.924   1.475   0.882  1.00  0.00     0.070 C 
ATOM     15  C   UNL     1       2.480   1.209   0.361  1.00  0.00     0.135 C 
ATOM     16  N   UNL     1       4.987   1.533  -0.141  1.00  0.00    -0.311 NA
ATOM     17  C   UNL     1       4.541   0.996  -1.436  1.00  0.00     0.102 C 
ATOM     18  C   UNL     1       3.625  -0.242  -1.333  1.00  0.00     0.132 C 
ATOM     19  C   UNL     1       4.329   0.434   1.931  1.00  0.00     0.026 C 
ATOM     20  H   UNL     1       5.290   2.497  -0.274  1.00  0.00     0.123 HD
ENDBRANCH   1  13
BRANCH  10  21
ATOM     21  C   UNL     1      -2.708   0.946   0.281  1.00  0.00     0.082 A 
ATOM     22  C   UNL     1      -3.293   1.315   1.508  1.00  0.00     0.150 A 
ATOM     23  C   UNL     1      -2.377   1.970  -0.625  1.00  0.00     0.033 A 
ATOM     24  C   UNL     1      -3.527   2.646   1.835  1.00  0.00     0.080 A 
ATOM     25  C   UNL     1      -2.611   3.310  -0.303  1.00  0.00     0.041 A 
ATOM     26  C   UNL     1      -3.182   3.633   0.924  1.00  0.00     0.126 A 
ATOM     27  F   UNL     1      -3.622   0.373   2.405  1.00  0.00    -0.205 F 
ATOM     28  F   UNL     1      -3.402   4.918   1.228  1.00  0.00    -0.207 F 
ENDBRANCH  10  21
BRANCH   8  29
ATOM     29  C   UNL     1      -4.830  -3.318  -0.379  1.00  0.00     0.341 C 
ATOM     30  O   UNL     1      -5.948  -2.830  -0.404  1.00  0.00    -0.246 OA
BRANCH  29  31
ATOM     31  O   UNL     1      -4.655  -4.632  -0.176  1.00  0.00    -0.477 OA
ATOM     32  H   UNL     1      -5.558  -5.008  -0.141  1.00  0.00     0.297 HD
ENDBRANCH  29  31
ENDBRANCH   8  29
TORSDOF 4
