REMARK SMILES CCOC(=O)[C@H](CCc1ccccc1)N[C@H]1CS[C@H](c2cccs2)CN(CC(=O)O)C1=O
REMARK SMILES IDX 16 1 15 3 6 5 4 6 5 7 3 8 2 9 1 10 7 11 8 12 9 13 10 14
REMARK SMILES IDX 14 15 11 16 13 17 12 18 31 19 32 20 26 21 25 22 19 23 18 24
REMARK SMILES IDX 17 25 20 27 21 28 24 29 22 30 23 31 27 32 28 33 29 34 30 35
REMARK H PARENT 15 4 30 36
REMARK Flexibility Score:  124.900
ROOT
ATOM      1  C   UNL     1       0.533   0.795   0.551  1.00  0.00     0.154 CG0
ATOM      2  G   UNL     1       0.939   0.559   2.019  1.00  0.00     0.000 G0
ENDROOT
BRANCH   1   3
ATOM      3  N   UNL     1      -0.428  -0.250   0.090  1.00  0.00    -0.293 NA
ATOM      4  H   UNL     1      -0.244  -0.427  -0.906  1.00  0.00     0.124 HD
BRANCH   3   5
ATOM      5  C   UNL     1      -1.869   0.133   0.171  1.00  0.00     0.165 C 
BRANCH   5   6
ATOM      6  C   UNL     1      -2.190   1.278  -0.810  1.00  0.00     0.323 C 
ATOM      7  O   UNL     1      -2.601   2.386  -0.491  1.00  0.00    -0.250 OA
BRANCH   6   8
ATOM      8  O   UNL     1      -1.936   0.870  -2.090  1.00  0.00    -0.465 OA
BRANCH   8   9
ATOM      9  C   UNL     1      -2.207   1.836  -3.117  1.00  0.00     0.229 C 
ATOM     10  C   UNL     1      -0.977   2.682  -3.382  1.00  0.00     0.049 C 
ENDBRANCH   8   9
ENDBRANCH   6   8
ENDBRANCH   5   6
BRANCH   5  11
ATOM     11  C   UNL     1      -2.341   0.426   1.607  1.00  0.00     0.036 C 
BRANCH  11  12
ATOM     12  C   UNL     1      -3.864   0.570   1.768  1.00  0.00     0.038 C 
BRANCH  12  13
ATOM     13  C   UNL     1      -4.649  -0.637   1.319  1.00  0.00    -0.048 A 
ATOM     14  C   UNL     1      -5.462  -0.568   0.179  1.00  0.00     0.004 A 
ATOM     15  C   UNL     1      -4.568  -1.845   2.025  1.00  0.00     0.004 A 
ATOM     16  C   UNL     1      -6.173  -1.689  -0.252  1.00  0.00     0.000 A 
ATOM     17  C   UNL     1      -5.281  -2.965   1.593  1.00  0.00     0.000 A 
ATOM     18  C   UNL     1      -6.081  -2.888   0.455  1.00  0.00     0.000 A 
ENDBRANCH  12  13
ENDBRANCH  11  12
ENDBRANCH   5  11
ENDBRANCH   3   5
ENDBRANCH   1   3
BRANCH   1  19
ATOM     19  C   UNL     1       1.661   0.888  -0.516  1.00  0.00     0.241 C 
ATOM     20  O   UNL     1       1.559   1.721  -1.425  1.00  0.00    -0.273 OA
BRANCH  19  21
ATOM     21  N   UNL     1       2.691  -0.037  -0.525  1.00  0.00    -0.329 N 
BRANCH  21  22
ATOM     22  C   UNL     1       2.874  -1.074   0.491  1.00  0.00     0.140 C 
BRANCH  22  23
ATOM     23  C   UNL     1       3.478  -0.555   1.819  1.00  0.00     0.106 C 
BRANCH  23  24
ATOM     24  S   UNL     1       2.648   0.955   2.483  1.00  0.00    -0.149 SA
BRANCH  24  25
ATOM     25  C   UNL     1       0.939   0.559   2.019  1.00  0.00     0.099 CG0
ATOM     26  G   UNL     1       0.533   0.795   0.551  1.00  0.00     0.000 G0
ENDBRANCH  24  25
ENDBRANCH  23  24
BRANCH  23  27
ATOM     27  C   UNL     1       4.969  -0.314   1.691  1.00  0.00     0.019 A 
ATOM     28  C   UNL     1       5.649   0.763   1.145  1.00  0.00     0.016 A 
ATOM     29  S   UNL     1       6.067  -1.513   2.249  1.00  0.00    -0.148 S 
ATOM     30  C   UNL     1       7.063   0.601   1.192  1.00  0.00     0.012 A 
ATOM     31  C   UNL     1       7.425  -0.593   1.771  1.00  0.00     0.065 A 
ENDBRANCH  23  27
ENDBRANCH  22  23
ENDBRANCH  21  22
BRANCH  21  32
ATOM     32  C   UNL     1       3.602  -0.041  -1.676  1.00  0.00     0.242 C 
BRANCH  32  33
ATOM     33  C   UNL     1       3.104  -0.870  -2.855  1.00  0.00     0.323 C 
ATOM     34  O   UNL     1       3.677  -0.987  -3.929  1.00  0.00    -0.250 OA
BRANCH  33  35
ATOM     35  O   UNL     1       1.953  -1.539  -2.638  1.00  0.00    -0.480 OA
ATOM     36  H   UNL     1       1.782  -1.980  -3.496  1.00  0.00     0.296 HD
ENDBRANCH  33  35
ENDBRANCH  32  33
ENDBRANCH  21  32
ENDBRANCH  19  21
ENDBRANCH   1  19
TORSDOF 12
