REMARK SMILES C[C@H](Cn1cnc2c(N)ncnc21)OCP(=O)(O)O
REMARK SMILES IDX 1 1 2 2 3 3 4 4 5 5 13 6 6 7 12 8 7 9 11 10 8 11 10 12 9 13
REMARK SMILES IDX 14 16 15 17 16 18 17 19 18 20 19 22
REMARK H PARENT 9 14 9 15 18 21 19 23
ROOT
ATOM      1  C   UNL     1       0.723  -1.762  -1.234  1.00  0.00     0.040 C 
ATOM      2  C   UNL     1       0.905  -0.445  -0.479  1.00  0.00     0.135 C 
ENDROOT
BRANCH   2   3
ATOM      3  C   UNL     1       0.090   0.687  -1.121  1.00  0.00     0.157 C 
BRANCH   3   4
ATOM      4  N   UNL     1      -1.339   0.525  -1.003  1.00  0.00    -0.313 N 
ATOM      5  C   UNL     1      -2.211   0.246  -2.020  1.00  0.00     0.202 A 
ATOM      6  C   UNL     1      -2.068   0.656   0.146  1.00  0.00     0.165 A 
ATOM      7  N   UNL     1      -3.455   0.170  -1.592  1.00  0.00    -0.231 NA
ATOM      8  N   UNL     1      -1.615   0.943   1.378  1.00  0.00    -0.217 NA
ATOM      9  C   UNL     1      -3.378   0.420  -0.236  1.00  0.00     0.150 A 
ATOM     10  C   UNL     1      -2.635   0.993   2.259  1.00  0.00     0.226 A 
ATOM     11  C   UNL     1      -4.349   0.485   0.777  1.00  0.00     0.155 A 
ATOM     12  N   UNL     1      -3.952   0.791   2.033  1.00  0.00    -0.217 NA
BRANCH  11  13
ATOM     13  N   UNL     1      -5.702   0.269   0.549  1.00  0.00    -0.382 N 
ATOM     14  H   UNL     1      -5.972   0.386  -0.421  1.00  0.00     0.158 HD
ATOM     15  H   UNL     1      -6.282   0.701   1.256  1.00  0.00     0.158 HD
ENDBRANCH  11  13
ENDBRANCH   3   4
ENDBRANCH   2   3
BRANCH   2  16
ATOM     16  O   UNL     1       2.289  -0.056  -0.536  1.00  0.00    -0.364 OA
BRANCH  16  17
ATOM     17  C   UNL     1       3.076  -0.664   0.506  1.00  0.00     0.288 C 
BRANCH  17  18
ATOM     18  P   UNL     1       4.803  -0.346   0.108  1.00  0.00     0.350 P 
ATOM     19  O   UNL     1       5.460  -1.272  -0.858  1.00  0.00    -0.258 OA
BRANCH  18  20
ATOM     20  O   UNL     1       5.544  -0.239   1.526  1.00  0.00    -0.323 OA
ATOM     21  H   UNL     1       6.502  -0.093   1.405  1.00  0.00     0.221 HD
ENDBRANCH  18  20
BRANCH  18  22
ATOM     22  O   UNL     1       4.811   1.193  -0.358  1.00  0.00    -0.323 OA
ATOM     23  H   UNL     1       3.940   1.454  -0.723  1.00  0.00     0.221 HD
ENDBRANCH  18  22
ENDBRANCH  17  18
ENDBRANCH  16  17
ENDBRANCH   2  16
TORSDOF 8
