REMARK SMILES CCC(=O)O[C@H]1CC[C@H]2[C@@H]3CCC4=CC(=O)CC[C@]4(C)[C@H]3CC[C@]12C
REMARK SMILES IDX 3 1 4 2 2 3 1 4 5 5 6 6 7 7 24 8 8 9 23 10 9 11 22 12 10 13
REMARK SMILES IDX 21 14 11 15 19 16 12 17 18 18 13 19 17 20 14 21 15 22 16 23
REMARK SMILES IDX 25 24 20 25
REMARK H PARENT
ROOT
ATOM      1  C   UNL     1       4.594   0.358   0.471  1.00  0.00     0.305 C 
ATOM      2  O   UNL     1       4.197   0.787   1.544  1.00  0.00    -0.252 OA
ENDROOT
BRANCH   1   3
ATOM      3  C   UNL     1       5.883  -0.399   0.255  1.00  0.00     0.119 C 
ATOM      4  C   UNL     1       6.647  -0.606   1.550  1.00  0.00     0.016 C 
ENDBRANCH   1   3
BRANCH   1   5
ATOM      5  O   UNL     1       3.945   0.485  -0.720  1.00  0.00    -0.462 OA
BRANCH   5   6
ATOM      6  C   UNL     1       2.687   1.166  -0.685  1.00  0.00     0.182 C 
ATOM      7  C   UNL     1       2.417   1.807  -2.064  1.00  0.00     0.046 C 
ATOM      8  C   UNL     1       1.477   0.225  -0.479  1.00  0.00     0.008 C 
ATOM      9  C   UNL     1       0.908   1.667  -2.325  1.00  0.00     0.008 C 
ATOM     10  C   UNL     1       1.157  -0.116   0.983  1.00  0.00     0.011 C 
ATOM     11  C   UNL     1       0.353   1.141  -1.005  1.00  0.00     0.002 C 
ATOM     12  C   UNL     1      -0.232  -0.764   1.127  1.00  0.00     0.005 C 
ATOM     13  C   UNL     1      -1.021   0.463  -0.998  1.00  0.00    -0.003 C 
ATOM     14  C   UNL     1      -1.373   0.056   0.466  1.00  0.00     0.002 C 
ATOM     15  C   UNL     1      -2.105   1.390  -1.562  1.00  0.00     0.008 C 
ATOM     16  C   UNL     1      -2.796  -0.615   0.591  1.00  0.00    -0.008 C 
ATOM     17  C   UNL     1      -3.475   0.725  -1.523  1.00  0.00     0.032 C 
ATOM     18  C   UNL     1      -3.157  -0.719   2.103  1.00  0.00     0.019 C 
ATOM     19  C   UNL     1      -3.836   0.249  -0.136  1.00  0.00    -0.060 C 
ATOM     20  C   UNL     1      -4.630  -0.997   2.366  1.00  0.00     0.081 C 
ATOM     21  C   UNL     1      -5.033   0.573   0.385  1.00  0.00     0.047 C 
ATOM     22  C   UNL     1      -5.490   0.034   1.687  1.00  0.00     0.155 C 
ATOM     23  O   UNL     1      -6.579   0.383   2.136  1.00  0.00    -0.295 OA
ATOM     24  C   UNL     1       1.671  -1.086  -1.284  1.00  0.00     0.015 C 
ATOM     25  C   UNL     1      -2.826  -2.029  -0.030  1.00  0.00     0.016 C 
ENDBRANCH   5   6
ENDBRANCH   1   5
TORSDOF 3
