REMARK SMILES c1ccc2c(c1)CCCC2C1=NCCN1
REMARK SMILES IDX 14 1 13 2 12 3 11 4 15 5 10 7 9 8 4 9 8 10 3 11 5 12 7 13
REMARK SMILES IDX 2 14 6 15 1 16
REMARK H PARENT 15 6
ROOT
ATOM      1  C   UNL     1       3.070   0.686   0.884  1.00  0.00     0.137 C 
ATOM      2  C   UNL     1       3.273  -0.822   1.038  1.00  0.00     0.165 C 
ATOM      3  N   UNL     1       2.086  -1.471   0.414  1.00  0.00    -0.270 NA
ATOM      4  C   UNL     1       1.503  -0.508  -0.257  1.00  0.00     0.104 C 
ATOM      5  N   UNL     1       2.115   0.726  -0.197  1.00  0.00    -0.371 N 
ATOM      6  H   UNL     1       1.497   1.532  -0.238  1.00  0.00     0.161 HD
ENDROOT
BRANCH   4   7
ATOM      7  C   UNL     1       0.228  -0.730  -1.071  1.00  0.00     0.085 C 
ATOM      8  C   UNL     1      -0.466  -2.063  -0.759  1.00  0.00     0.017 C 
ATOM      9  C   UNL     1      -0.776   0.393  -0.877  1.00  0.00    -0.034 A 
ATOM     10  C   UNL     1      -1.194  -2.103   0.594  1.00  0.00     0.006 C 
ATOM     11  C   UNL     1      -0.887   1.443  -1.795  1.00  0.00     0.005 A 
ATOM     12  C   UNL     1      -1.594   0.374   0.267  1.00  0.00    -0.044 A 
ATOM     13  C   UNL     1      -1.422  -0.743   1.262  1.00  0.00     0.036 C 
ATOM     14  C   UNL     1      -1.802   2.472  -1.572  1.00  0.00     0.000 A 
ATOM     15  C   UNL     1      -2.498   1.417   0.489  1.00  0.00     0.004 A 
ATOM     16  C   UNL     1      -2.604   2.459  -0.432  1.00  0.00     0.000 A 
ENDBRANCH   4   7
TORSDOF 1
