REMARK SMILES Cc1ncc(C[n+]2csc(CCO)c2C)c(N)n1
REMARK SMILES IDX 15 1 14 2 10 3 9 4 8 5 7 6 11 7 12 8 13 9 6 11 5 12 4 13
REMARK SMILES IDX 16 14 3 15 18 16 2 17 1 18 17 19
REMARK H PARENT 13 10 17 20 17 21
ROOT
ATOM      1  C   UNL     1      -2.018  -1.613  -0.976  1.00  0.00     0.125 C 
ATOM      2  C   UNL     1      -1.661  -1.011   0.333  1.00  0.00     0.192 A 
ATOM      3  C   UNL     1      -2.488  -0.320   1.202  1.00  0.00     0.079 A 
ATOM      4  S   UNL     1      -1.614   0.124   2.614  1.00  0.00    -0.075 S 
ATOM      5  C   UNL     1      -0.177  -0.573   2.015  1.00  0.00     0.378 A 
ATOM      6  N   UNL     1      -0.357  -1.110   0.818  1.00  0.00    -0.188 N 
ENDROOT
BRANCH   3   7
ATOM      7  C   UNL     1      -3.939   0.062   1.067  1.00  0.00     0.082 C 
BRANCH   7   8
ATOM      8  C   UNL     1      -4.148   1.181   0.046  1.00  0.00     0.162 C 
BRANCH   8   9
ATOM      9  O   UNL     1      -3.462   2.361   0.443  1.00  0.00    -0.396 OA
ATOM     10  H   UNL     1      -3.997   2.807   1.125  1.00  0.00     0.210 HD
ENDBRANCH   8   9
ENDBRANCH   7   8
ENDBRANCH   3   7
BRANCH   6  11
ATOM     11  C   UNL     1       0.758  -1.770   0.109  1.00  0.00     0.400 C 
BRANCH  11  12
ATOM     12  C   UNL     1       1.924  -0.850  -0.052  1.00  0.00     0.077 A 
ATOM     13  C   UNL     1       3.118  -1.067   0.605  1.00  0.00     0.127 A 
ATOM     14  C   UNL     1       1.872   0.305  -0.805  1.00  0.00     0.136 A 
ATOM     15  N   UNL     1       4.152  -0.215   0.565  1.00  0.00    -0.241 NA
ATOM     16  N   UNL     1       2.874   1.185  -0.862  1.00  0.00    -0.216 NA
ATOM     17  C   UNL     1       3.989   0.901  -0.165  1.00  0.00     0.127 A 
ATOM     18  C   UNL     1       5.134   1.860  -0.250  1.00  0.00     0.090 C 
BRANCH  14  19
ATOM     19  N   UNL     1       0.759   0.616  -1.589  1.00  0.00    -0.383 N 
ATOM     20  H   UNL     1       0.716   0.008  -2.405  1.00  0.00     0.158 HD
ATOM     21  H   UNL     1       0.941   1.561  -1.946  1.00  0.00     0.158 HD
ENDBRANCH  14  19
ENDBRANCH  11  12
ENDBRANCH   6  11
TORSDOF 6
