REMARK SMILES Nc1ccc(S(=O)(=O)c2cnc(N)s2)cc1
REMARK SMILES IDX 6 1 7 2 8 3 9 4 12 5 11 6 14 7 10 8 13 9 5 12 4 13 15 14
REMARK SMILES IDX 3 15 16 16 2 17 1 18
REMARK H PARENT 13 10 13 11 1 19 1 20
ROOT
ATOM      1  S   UNL     1       0.857  -1.863   0.364  1.00  0.00     0.217 S 
ATOM      2  O   UNL     1       1.589  -2.004   1.607  1.00  0.00    -0.218 OA
ATOM      3  O   UNL     1       0.488  -3.016  -0.435  1.00  0.00    -0.218 OA
ENDROOT
BRANCH   1   4
ATOM      4  C   UNL     1       1.882  -0.894  -0.682  1.00  0.00     0.146 A 
ATOM      5  C   UNL     1       3.219   0.900  -1.591  1.00  0.00     0.181 A 
ATOM      6  N   UNL     1       3.185  -0.093  -2.444  1.00  0.00    -0.228 NA
ATOM      7  S   UNL     1       2.356   0.653  -0.129  1.00  0.00    -0.085 S 
ATOM      8  C   UNL     1       2.424  -1.124  -1.926  1.00  0.00     0.146 A 
BRANCH   5   9
ATOM      9  N   UNL     1       3.891   2.039  -1.823  1.00  0.00    -0.375 N 
ATOM     10  H   UNL     1       4.587   1.980  -2.559  1.00  0.00     0.159 HD
ATOM     11  H   UNL     1       4.200   2.570  -1.017  1.00  0.00     0.159 HD
ENDBRANCH   5   9
ENDBRANCH   1   4
BRANCH   1  12
ATOM     12  C   UNL     1      -0.613  -0.920   0.661  1.00  0.00     0.073 A 
ATOM     13  C   UNL     1      -1.542  -0.760  -0.369  1.00  0.00     0.023 A 
ATOM     14  C   UNL     1      -0.837  -0.351   1.915  1.00  0.00     0.023 A 
ATOM     15  C   UNL     1      -2.701  -0.016  -0.137  1.00  0.00     0.027 A 
ATOM     16  C   UNL     1      -2.001   0.390   2.132  1.00  0.00     0.027 A 
ATOM     17  C   UNL     1      -2.964   0.524   1.126  1.00  0.00     0.031 A 
BRANCH  17  18
ATOM     18  N   UNL     1      -4.064   1.368   1.314  1.00  0.00    -0.399 N 
ATOM     19  H   UNL     1      -4.355   1.459   2.283  1.00  0.00     0.156 HD
ATOM     20  H   UNL     1      -4.845   1.175   0.695  1.00  0.00     0.156 HD
ENDBRANCH  17  18
ENDBRANCH   1  12
TORSDOF 4
