REMARK SMILES C[C@@H](O)[C@H](N)C(=O)O
REMARK SMILES IDX 4 1 2 2 1 3 3 4 5 6 6 9 7 10 8 11
REMARK H PARENT 3 5 5 7 5 8 8 12
ROOT
ATOM      1  C   UNL     1      -0.348  -0.820   0.130  1.00  0.00     0.190 C 
ENDROOT
BRANCH   1   2
ATOM      2  C   UNL     1       1.021  -0.211   0.505  1.00  0.00     0.139 C 
ATOM      3  C   UNL     1       1.393   1.048  -0.271  1.00  0.00     0.040 C 
BRANCH   2   4
ATOM      4  O   UNL     1       1.092   0.097   1.899  1.00  0.00    -0.391 OA
ATOM      5  H   UNL     1       0.963  -0.730   2.396  1.00  0.00     0.211 HD
ENDBRANCH   2   4
ENDBRANCH   1   2
BRANCH   1   6
ATOM      6  N   UNL     1      -0.343  -1.393  -1.244  1.00  0.00    -0.316 NA
ATOM      7  H   UNL     1      -0.362  -0.604  -1.897  1.00  0.00     0.119 HD
ATOM      8  H   UNL     1      -1.241  -1.855  -1.397  1.00  0.00     0.119 HD
ENDBRANCH   1   6
BRANCH   1   9
ATOM      9  C   UNL     1      -1.479   0.203   0.285  1.00  0.00     0.323 C 
ATOM     10  O   UNL     1      -2.061   0.495   1.317  1.00  0.00    -0.250 OA
BRANCH   9  11
ATOM     11  O   UNL     1      -1.825   0.802  -0.879  1.00  0.00    -0.480 OA
ATOM     12  H   UNL     1      -2.529   1.430  -0.611  1.00  0.00     0.296 HD
ENDBRANCH   9  11
ENDBRANCH   1   9
TORSDOF 5
