REMARK SMILES O=C(O)CCc1cc(I)c(Oc2ccc(O)c(I)c2)c(I)c1
REMARK SMILES IDX 6 1 7 2 8 3 9 4 10 5 20 6 21 7 22 8 5 9 4 10 2 11 1 12 3 13
REMARK SMILES IDX 11 15 12 16 19 17 13 18 17 19 14 20 15 21 18 22 16 23
REMARK H PARENT 3 14 16 24
ROOT
ATOM      1  C   UNL     1      -2.121  -0.212  -0.619  1.00  0.00    -0.045 A 
ATOM      2  C   UNL     1      -1.530   1.037  -0.387  1.00  0.00     0.022 A 
ATOM      3  C   UNL     1      -0.327   1.135   0.324  1.00  0.00     0.057 A 
ATOM      4  I   UNL     1       0.442   3.057   0.661  1.00  0.00    -0.040 I 
ATOM      5  C   UNL     1       0.311  -0.021   0.793  1.00  0.00     0.154 A 
ATOM      6  C   UNL     1      -0.298  -1.269   0.597  1.00  0.00     0.057 A 
ATOM      7  I   UNL     1       0.517  -3.047   1.354  1.00  0.00    -0.040 I 
ATOM      8  C   UNL     1      -1.501  -1.363  -0.113  1.00  0.00     0.022 A 
ENDROOT
BRANCH   1   9
ATOM      9  C   UNL     1      -3.428  -0.315  -1.372  1.00  0.00     0.047 C 
BRANCH   9  10
ATOM     10  C   UNL     1      -4.639  -0.438  -0.450  1.00  0.00     0.127 C 
BRANCH  10  11
ATOM     11  C   UNL     1      -4.976   0.864   0.223  1.00  0.00     0.303 C 
ATOM     12  O   UNL     1      -4.727   1.989  -0.177  1.00  0.00    -0.252 OA
BRANCH  11  13
ATOM     13  O   UNL     1      -5.671   0.681   1.363  1.00  0.00    -0.481 OA
ATOM     14  H   UNL     1      -5.839   1.589   1.692  1.00  0.00     0.296 HD
ENDBRANCH  11  13
ENDBRANCH  10  11
ENDBRANCH   9  10
ENDBRANCH   1   9
BRANCH   5  15
ATOM     15  O   UNL     1       1.481   0.074   1.509  1.00  0.00    -0.455 OA
BRANCH  15  16
ATOM     16  C   UNL     1       2.677   0.007   0.820  1.00  0.00     0.128 A 
ATOM     17  C   UNL     1       2.815  -0.145  -0.562  1.00  0.00     0.065 A 
ATOM     18  C   UNL     1       3.818   0.105   1.623  1.00  0.00     0.051 A 
ATOM     19  C   UNL     1       4.092  -0.200  -1.133  1.00  0.00     0.058 A 
ATOM     20  C   UNL     1       5.092   0.052   1.055  1.00  0.00     0.051 A 
ATOM     21  C   UNL     1       5.228  -0.101  -0.324  1.00  0.00     0.129 A 
ATOM     22  I   UNL     1       4.232  -0.431  -3.208  1.00  0.00    -0.040 I 
BRANCH  21  23
ATOM     23  O   UNL     1       6.477  -0.154  -0.876  1.00  0.00    -0.507 OA
ATOM     24  H   UNL     1       7.142  -0.066  -0.174  1.00  0.00     0.293 HD
ENDBRANCH  21  23
ENDBRANCH  15  16
ENDBRANCH   5  15
TORSDOF 7
