REMARK SMILES CN1c2ccccc2C(NCCCCCCC(=O)O)c2ccc(Cl)cc2S1(=O)=O
REMARK SMILES IDX 13 1 12 2 11 3 10 4 9 6 2 7 3 8 27 9 4 10 8 11 26 12 28 13
REMARK SMILES IDX 29 14 5 15 7 16 25 17 20 18 6 19 23 20 21 21 22 22 1 23
REMARK SMILES IDX 24 24 14 25 15 26 16 27 17 28 18 29 19 30
REMARK H PARENT 10 5 19 31
ROOT
ATOM      1  C   UNL     1       2.766  -1.565  -1.073  1.00  0.00     0.001 C 
ENDROOT
BRANCH   1   2
ATOM      2  C   UNL     1       1.634  -1.515  -0.040  1.00  0.00     0.015 C 
BRANCH   2   3
ATOM      3  C   UNL     1       1.397  -0.110   0.527  1.00  0.00     0.082 C 
BRANCH   3   4
ATOM      4  N   UNL     1       0.272  -0.079   1.466  1.00  0.00    -0.306 NA
ATOM      5  H   UNL     1       0.391   0.687   2.121  1.00  0.00     0.123 HD
BRANCH   4   6
ATOM      6  C   UNL     1      -1.049   0.030   0.809  1.00  0.00     0.118 C 
ATOM      7  N   UNL     1      -3.853  -0.732  -0.209  1.00  0.00    -0.269 N 
ATOM      8  C   UNL     1      -3.504  -0.592   1.192  1.00  0.00     0.057 A 
ATOM      9  S   UNL     1      -3.077   0.074  -1.485  1.00  0.00     0.264 S 
ATOM     10  C   UNL     1      -4.571  -0.809   2.089  1.00  0.00     0.027 A 
ATOM     11  C   UNL     1      -2.217  -0.342   1.717  1.00  0.00    -0.002 A 
ATOM     12  C   UNL     1      -2.335   1.530  -0.797  1.00  0.00     0.094 A 
ATOM     13  O   UNL     1      -2.000  -0.755  -1.987  1.00  0.00    -0.201 OA
ATOM     14  O   UNL     1      -4.124   0.498  -2.395  1.00  0.00    -0.201 OA
ATOM     15  C   UNL     1      -4.387  -0.801   3.471  1.00  0.00     0.002 A 
ATOM     16  C   UNL     1      -2.054  -0.347   3.123  1.00  0.00     0.008 A 
ATOM     17  C   UNL     1      -2.712   2.778  -1.313  1.00  0.00     0.043 A 
ATOM     18  C   UNL     1      -1.352   1.409   0.209  1.00  0.00    -0.006 A 
ATOM     19  C   UNL     1      -3.122  -0.579   3.988  1.00  0.00     0.001 A 
ATOM     20  C   UNL     1      -2.118   3.929  -0.814  1.00  0.00     0.042 A 
ATOM     21  C   UNL     1      -0.787   2.599   0.705  1.00  0.00     0.008 A 
ATOM     22  C   UNL     1      -1.160   3.846   0.191  1.00  0.00     0.021 A 
ATOM     23  C   UNL     1      -4.323  -2.088  -0.608  1.00  0.00     0.164 C 
ATOM     24  Cl  UNL     1      -2.571   5.467  -1.437  1.00  0.00    -0.084 Cl
ENDBRANCH   4   6
ENDBRANCH   3   4
ENDBRANCH   2   3
ENDBRANCH   1   2
BRANCH   1  25
ATOM     25  C   UNL     1       4.135  -1.203  -0.493  1.00  0.00     0.001 C 
BRANCH  25  26
ATOM     26  C   UNL     1       5.301  -1.485  -1.450  1.00  0.00     0.012 C 
BRANCH  26  27
ATOM     27  C   UNL     1       5.258  -0.722  -2.774  1.00  0.00     0.122 C 
BRANCH  27  28
ATOM     28  C   UNL     1       5.431   0.765  -2.610  1.00  0.00     0.303 C 
ATOM     29  O   UNL     1       5.775   1.370  -1.610  1.00  0.00    -0.252 OA
BRANCH  28  30
ATOM     30  O   UNL     1       5.178   1.427  -3.756  1.00  0.00    -0.481 OA
ATOM     31  H   UNL     1       5.338   2.367  -3.531  1.00  0.00     0.296 HD
ENDBRANCH  28  30
ENDBRANCH  27  28
ENDBRANCH  26  27
ENDBRANCH  25  26
ENDBRANCH   1  25
TORSDOF 9
