REMARK SMILES O=C(Cn1c(=O)sc2ccc(Cl)cc21)N1CCN(CCO)CC1
REMARK SMILES IDX 18 1 17 2 16 3 15 4 23 5 22 6 2 7 1 8 19 9 20 10 21 11 3 13
REMARK SMILES IDX 4 14 5 15 14 16 6 17 7 18 8 19 13 20 9 21 11 22 10 23 12 24
REMARK H PARENT 21 12
ROOT
ATOM      1  N   UNL     1       3.464  -0.030  -0.310  1.00  0.00    -0.298 NA
ATOM      2  C   UNL     1       2.724   1.175   0.149  1.00  0.00     0.106 C 
ATOM      3  C   UNL     1       1.563   0.886   1.126  1.00  0.00     0.135 C 
ATOM      4  N   UNL     1       0.658  -0.119   0.563  1.00  0.00    -0.339 N 
ATOM      5  C   UNL     1       1.338  -1.354   0.164  1.00  0.00     0.135 C 
ATOM      6  C   UNL     1       2.496  -1.039  -0.810  1.00  0.00     0.106 C 
ATOM      7  C   UNL     1      -0.587   0.294   0.094  1.00  0.00     0.242 C 
ATOM      8  O   UNL     1      -0.991   1.446   0.264  1.00  0.00    -0.273 OA
ENDROOT
BRANCH   1   9
ATOM      9  C   UNL     1       4.339  -0.602   0.739  1.00  0.00     0.112 C 
BRANCH   9  10
ATOM     10  C   UNL     1       5.582   0.269   0.984  1.00  0.00     0.171 C 
BRANCH  10  11
ATOM     11  O   UNL     1       6.213   0.570  -0.258  1.00  0.00    -0.395 OA
ATOM     12  H   UNL     1       5.477   0.669  -0.897  1.00  0.00     0.210 HD
ENDBRANCH  10  11
ENDBRANCH   9  10
ENDBRANCH   1   9
BRANCH   7  13
ATOM     13  C   UNL     1      -1.456  -0.764  -0.603  1.00  0.00     0.227 C 
BRANCH  13  14
ATOM     14  N   UNL     1      -2.735  -0.233  -1.030  1.00  0.00    -0.289 N 
ATOM     15  C   UNL     1      -2.897   0.270  -2.312  1.00  0.00     0.308 C 
ATOM     16  C   UNL     1      -3.832  -0.036  -0.166  1.00  0.00     0.064 A 
ATOM     17  O   UNL     1      -2.076   0.254  -3.217  1.00  0.00    -0.257 OA
ATOM     18  S   UNL     1      -4.526   0.941  -2.493  1.00  0.00    -0.074 SA
ATOM     19  C   UNL     1      -4.910   0.586  -0.803  1.00  0.00     0.056 A 
ATOM     20  C   UNL     1      -3.912  -0.385   1.175  1.00  0.00     0.048 A 
ATOM     21  C   UNL     1      -6.088   0.866  -0.128  1.00  0.00     0.023 A 
ATOM     22  C   UNL     1      -5.097  -0.105   1.861  1.00  0.00     0.043 A 
ATOM     23  C   UNL     1      -6.179   0.513   1.220  1.00  0.00     0.022 A 
ATOM     24  Cl  UNL     1      -5.231  -0.530   3.525  1.00  0.00    -0.084 Cl
ENDBRANCH  13  14
ENDBRANCH   7  13
TORSDOF 5
