REMARK SMILES CC1(C)S[C@@H]2[C@H](NC(=O)[C@H](C(=O)O)c3ccsc3)C(=O)N2[C@H]1C(=O)O
REMARK SMILES IDX 7 1 8 2 9 3 6 5 2 6 4 7 22 8 5 9 21 10 19 11 20 12 1 13 3 14
REMARK SMILES IDX 23 15 24 16 25 17 10 19 11 20 12 21 13 22 14 24 18 25 15 26
REMARK SMILES IDX 17 27 16 28
REMARK H PARENT 7 4 25 18 13 23
ROOT
ATOM      1  N   UNL     1       0.975  -0.579   1.585  1.00  0.00    -0.341 N 
ATOM      2  C   UNL     1       2.189   0.081   1.640  1.00  0.00     0.239 C 
ATOM      3  O   UNL     1       2.314   1.106   2.310  1.00  0.00    -0.274 OA
ATOM      4  H   UNL     1       0.876  -1.384   0.973  1.00  0.00     0.164 HD
ENDROOT
BRANCH   1   5
ATOM      5  C   UNL     1      -0.236  -0.014   2.241  1.00  0.00     0.205 C 
ATOM      6  C   UNL     1      -2.170   0.710  -0.806  1.00  0.00     0.044 C 
ATOM      7  S   UNL     1      -0.595   1.489  -0.218  1.00  0.00    -0.125 SA
ATOM      8  C   UNL     1      -3.061   0.515   0.441  1.00  0.00     0.211 C 
ATOM      9  C   UNL     1      -0.934   1.199   1.567  1.00  0.00     0.176 C 
ATOM     10  N   UNL     1      -2.187   0.423   1.604  1.00  0.00    -0.311 N 
ATOM     11  C   UNL     1      -1.565  -0.745   1.937  1.00  0.00     0.250 C 
ATOM     12  O   UNL     1      -1.937  -1.892   1.861  1.00  0.00    -0.272 OA
ATOM     13  C   UNL     1      -1.805  -0.643  -1.441  1.00  0.00     0.026 C 
ATOM     14  C   UNL     1      -2.773   1.608  -1.893  1.00  0.00     0.026 C 
BRANCH   8  15
ATOM     15  C   UNL     1      -4.036   1.662   0.693  1.00  0.00     0.327 C 
ATOM     16  O   UNL     1      -3.837   2.681   1.336  1.00  0.00    -0.250 OA
BRANCH  15  17
ATOM     17  O   UNL     1      -5.229   1.471   0.088  1.00  0.00    -0.480 OA
ATOM     18  H   UNL     1      -5.753   2.261   0.339  1.00  0.00     0.296 HD
ENDBRANCH  15  17
ENDBRANCH   8  15
ENDBRANCH   1   5
BRANCH   2  19
ATOM     19  C   UNL     1       3.351  -0.603   0.930  1.00  0.00     0.219 C 
BRANCH  19  20
ATOM     20  C   UNL     1       4.554   0.298   0.780  1.00  0.00     0.320 C 
ATOM     21  O   UNL     1       5.665   0.078   1.242  1.00  0.00    -0.251 OA
BRANCH  20  22
ATOM     22  O   UNL     1       4.346   1.403   0.034  1.00  0.00    -0.480 OA
ATOM     23  H   UNL     1       5.203   1.879   0.061  1.00  0.00     0.296 HD
ENDBRANCH  20  22
ENDBRANCH  19  20
BRANCH  19  24
ATOM     24  C   UNL     1       2.967  -1.243  -0.395  1.00  0.00    -0.014 A 
ATOM     25  C   UNL     1       2.448  -0.577  -1.492  1.00  0.00     0.070 A 
ATOM     26  C   UNL     1       3.090  -2.648  -0.674  1.00  0.00     0.017 A 
ATOM     27  S   UNL     1       2.104  -1.617  -2.804  1.00  0.00    -0.152 S 
ATOM     28  C   UNL     1       2.657  -2.980  -1.938  1.00  0.00     0.065 A 
ENDBRANCH  19  24
ENDBRANCH   2  19
TORSDOF 7
