REMARK SMILES Cc1cc(Br)c(O)c2ncccc12
REMARK SMILES IDX 1 1 2 2 13 3 12 4 11 5 10 6 9 7 8 8 6 9 4 10 5 11 3 12 7 13
REMARK H PARENT 7 14
ROOT
ATOM      1  C   UNL     1      -1.312  -2.362  -0.035  1.00  0.00     0.045 C 
ATOM      2  C   UNL     1      -0.203  -1.351  -0.159  1.00  0.00    -0.040 A 
ATOM      3  C   UNL     1      -0.415   0.030   0.110  1.00  0.00     0.007 A 
ATOM      4  C   UNL     1      -1.653   0.573   0.507  1.00  0.00     0.012 A 
ATOM      5  C   UNL     1      -1.786   1.936   0.752  1.00  0.00     0.021 A 
ATOM      6  C   UNL     1      -0.672   2.734   0.594  1.00  0.00     0.112 A 
ATOM      7  N   UNL     1       0.537   2.267   0.217  1.00  0.00    -0.252 NA
ATOM      8  C   UNL     1       0.657   0.942  -0.020  1.00  0.00     0.113 A 
ATOM      9  C   UNL     1       1.904   0.462  -0.409  1.00  0.00     0.156 A 
ATOM     10  C   UNL     1       2.123  -0.887  -0.674  1.00  0.00     0.062 A 
ATOM     11  Br  UNL     1       3.822  -1.536  -1.204  1.00  0.00    -0.047 Br
ATOM     12  C   UNL     1       1.071  -1.792  -0.549  1.00  0.00     0.023 A 
ENDROOT
BRANCH   9  13
ATOM     13  O   UNL     1       2.934   1.372  -0.528  1.00  0.00    -0.505 OA
ATOM     14  H   UNL     1       2.521   2.230  -0.290  1.00  0.00     0.293 HD
ENDBRANCH   9  13
TORSDOF 1
