REMARK SMILES COC1CC(=C(c2cccs2)c2cccs2)C[N+](C)(C)C1
REMARK SMILES IDX 3 1 4 2 5 3 17 4 18 5 19 6 20 7 21 8 6 9 2 10 1 11 7 12 8 13
REMARK SMILES IDX 11 14 9 15 10 16 12 17 13 18 16 19 14 20 15 21
REMARK H PARENT
ROOT
ATOM      1  C   UNL     1      -2.356   0.591   0.402  1.00  0.00     0.177 C 
ATOM      2  C   UNL     1      -0.904   1.028   0.670  1.00  0.00     0.075 C 
ATOM      3  C   UNL     1       0.133  -0.030   0.309  1.00  0.00    -0.003 C 
ATOM      4  C   UNL     1      -0.460  -1.411   0.215  1.00  0.00     0.296 C 
ATOM      5  N   UNL     1      -1.580  -1.508  -0.834  1.00  0.00    -0.323 N 
ATOM      6  C   UNL     1      -0.971  -1.775  -2.210  1.00  0.00     0.334 C 
ATOM      7  C   UNL     1      -2.490  -2.677  -0.476  1.00  0.00     0.334 C 
ATOM      8  C   UNL     1      -2.404  -0.206  -0.909  1.00  0.00     0.296 C 
ATOM      9  C   UNL     1       1.448   0.254   0.112  1.00  0.00     0.014 C 
ENDROOT
BRANCH   1  10
ATOM     10  O   UNL     1      -3.229   1.712   0.248  1.00  0.00    -0.375 OA
ATOM     11  C   UNL     1      -3.464   2.431   1.455  1.00  0.00     0.195 C 
ENDBRANCH   1  10
BRANCH   9  12
ATOM     12  C   UNL     1       1.906   1.607   0.247  1.00  0.00     0.036 A 
ATOM     13  C   UNL     1       2.290   2.290   1.388  1.00  0.00     0.020 A 
ATOM     14  S   UNL     1       2.066   2.607  -1.147  1.00  0.00    -0.144 S 
ATOM     15  C   UNL     1       2.695   3.629   1.119  1.00  0.00     0.012 A 
ATOM     16  C   UNL     1       2.619   3.931  -0.221  1.00  0.00     0.065 A 
ENDBRANCH   9  12
BRANCH   9  17
ATOM     17  C   UNL     1       2.378  -0.807  -0.149  1.00  0.00     0.036 A 
ATOM     18  C   UNL     1       3.105  -1.561   0.757  1.00  0.00     0.020 A 
ATOM     19  S   UNL     1       2.754  -1.267  -1.765  1.00  0.00    -0.144 S 
ATOM     20  C   UNL     1       3.944  -2.524   0.125  1.00  0.00     0.012 A 
ATOM     21  C   UNL     1       3.848  -2.471  -1.246  1.00  0.00     0.065 A 
ENDBRANCH   9  17
TORSDOF 3
