REMARK SMILES Clc1ccc(C(Cn2ccnc2)OCc2ccsc2Cl)c(Cl)c1
REMARK SMILES IDX 13 1 14 2 15 3 19 4 18 5 16 6 17 7 20 8 6 9 7 10 8 11 9 12
REMARK SMILES IDX 12 13 10 14 11 15 5 16 21 17 4 18 23 19 3 20 2 21 22 22 1 23
REMARK H PARENT
ROOT
ATOM      1  O   UNL     1       1.194  -0.490  -0.745  1.00  0.00    -0.367 OA
ENDROOT
BRANCH   1   2
ATOM      2  C   UNL     1       2.023  -0.867   0.358  1.00  0.00     0.199 C 
BRANCH   2   3
ATOM      3  C   UNL     1       3.475  -0.808  -0.010  1.00  0.00     0.007 A 
ATOM      4  C   UNL     1       4.485  -1.514   0.607  1.00  0.00     0.098 A 
ATOM      5  S   UNL     1       6.027  -1.222  -0.031  1.00  0.00    -0.132 S 
ATOM      6  C   UNL     1       4.028   0.016  -1.052  1.00  0.00     0.019 A 
ATOM      7  C   UNL     1       5.394  -0.116  -1.173  1.00  0.00     0.067 A 
ATOM      8  Cl  UNL     1       4.332  -2.621   1.918  1.00  0.00    -0.072 Cl
ENDBRANCH   2   3
ENDBRANCH   1   2
BRANCH   1   9
ATOM      9  C   UNL     1      -0.208  -0.521  -0.443  1.00  0.00     0.170 C 
BRANCH   9  10
ATOM     10  C   UNL     1      -0.982  -0.592  -1.773  1.00  0.00     0.160 C 
BRANCH  10  11
ATOM     11  N   UNL     1      -2.373  -0.956  -1.596  1.00  0.00    -0.335 N 
ATOM     12  C   UNL     1      -3.439  -0.102  -1.578  1.00  0.00     0.107 A 
ATOM     13  C   UNL     1      -2.850  -2.222  -1.419  1.00  0.00     0.199 A 
ATOM     14  C   UNL     1      -4.531  -0.905  -1.349  1.00  0.00     0.130 A 
ATOM     15  N   UNL     1      -4.152  -2.220  -1.244  1.00  0.00    -0.245 NA
ENDBRANCH  10  11
ENDBRANCH   9  10
BRANCH   9  16
ATOM     16  C   UNL     1      -0.631   0.660   0.420  1.00  0.00     0.001 A 
ATOM     17  C   UNL     1      -0.309   2.001   0.142  1.00  0.00     0.048 A 
ATOM     18  C   UNL     1      -1.412   0.392   1.562  1.00  0.00     0.009 A 
ATOM     19  C   UNL     1      -0.745   3.031   0.982  1.00  0.00     0.041 A 
ATOM     20  C   UNL     1      -1.847   1.423   2.398  1.00  0.00     0.021 A 
ATOM     21  C   UNL     1      -1.511   2.737   2.104  1.00  0.00     0.042 A 
ATOM     22  Cl  UNL     1       0.628   2.470  -1.232  1.00  0.00    -0.084 Cl
ATOM     23  Cl  UNL     1      -2.044   4.007   3.134  1.00  0.00    -0.084 Cl
ENDBRANCH   9  16
ENDBRANCH   1   9
TORSDOF 6
