REMARK SMILES CN1CCCC(=C(c2cccs2)c2cccs2)C1
REMARK SMILES IDX 1 1 2 2 3 3 4 4 5 5 6 6 18 7 7 8 8 9 9 10 12 11 10 12 11 13
REMARK SMILES IDX 13 14 14 15 17 16 15 17 16 18
REMARK H PARENT
ROOT
ATOM      1  C   UNL     1       2.038   2.015   1.461  1.00  0.00     0.105 C 
ATOM      2  N   UNL     1       2.478   1.194   0.335  1.00  0.00    -0.302 NA
ATOM      3  C   UNL     1       3.102  -0.051   0.803  1.00  0.00     0.085 C 
ATOM      4  C   UNL     1       2.873  -1.222  -0.148  1.00  0.00     0.020 C 
ATOM      5  C   UNL     1       1.374  -1.498  -0.290  1.00  0.00     0.034 C 
ATOM      6  C   UNL     1       0.549  -0.222  -0.393  1.00  0.00    -0.046 C 
ATOM      7  C   UNL     1       1.410   0.998  -0.654  1.00  0.00     0.116 C 
ATOM      8  C   UNL     1      -0.805  -0.203  -0.271  1.00  0.00     0.009 C 
ENDROOT
BRANCH   8   9
ATOM      9  C   UNL     1      -1.520   1.033  -0.401  1.00  0.00     0.036 A 
ATOM     10  C   UNL     1      -1.933   1.683  -1.552  1.00  0.00     0.020 A 
ATOM     11  S   UNL     1      -2.020   1.900   1.001  1.00  0.00    -0.144 S 
ATOM     12  C   UNL     1      -2.633   2.894  -1.284  1.00  0.00     0.012 A 
ATOM     13  C   UNL     1      -2.747   3.132   0.067  1.00  0.00     0.065 A 
ENDBRANCH   8   9
BRANCH   8  14
ATOM     14  C   UNL     1      -1.510  -1.429  -0.030  1.00  0.00     0.036 A 
ATOM     15  C   UNL     1      -1.810  -2.039   1.177  1.00  0.00     0.020 A 
ATOM     16  S   UNL     1      -2.155  -2.334  -1.347  1.00  0.00    -0.144 S 
ATOM     17  C   UNL     1      -2.543  -3.250   1.019  1.00  0.00     0.012 A 
ATOM     18  C   UNL     1      -2.795  -3.529  -0.305  1.00  0.00     0.065 A 
ENDBRANCH   8  14
TORSDOF 2
