REMARK SMILES COc1cc2nccc(Oc3ccc(NC(=O)Nc4cc(C)on4)c(Cl)c3)c2cc1OC
REMARK SMILES IDX 11 1 12 2 13 3 14 4 25 5 26 6 27 7 10 8 9 9 3 10 30 11 4 12
REMARK SMILES IDX 29 13 5 14 28 15 6 16 7 17 8 18 2 19 1 20 31 21 32 22 15 23
REMARK SMILES IDX 16 24 17 25 18 26 19 29 24 30 20 31 23 32 21 33 22 34
REMARK H PARENT 15 27 18 28
ROOT
ATOM      1  C   UNL     1      -0.445  -0.716   0.814  1.00  0.00     0.129 A 
ATOM      2  C   UNL     1       0.649  -1.575   0.912  1.00  0.00     0.049 A 
ATOM      3  C   UNL     1       1.939  -1.120   0.615  1.00  0.00     0.031 A 
ATOM      4  C   UNL     1       2.148   0.198   0.201  1.00  0.00     0.061 A 
ATOM      5  C   UNL     1       1.030   1.049   0.090  1.00  0.00     0.068 A 
ATOM      6  Cl  UNL     1       1.214   2.693  -0.428  1.00  0.00    -0.082 Cl
ATOM      7  C   UNL     1      -0.259   0.598   0.386  1.00  0.00     0.069 A 
ENDROOT
BRANCH   1   8
ATOM      8  O   UNL     1      -1.677  -1.265   1.095  1.00  0.00    -0.457 OA
BRANCH   8   9
ATOM      9  C   UNL     1      -2.607  -0.446   1.701  1.00  0.00     0.138 A 
ATOM     10  C   UNL     1      -6.238   0.518  -0.206  1.00  0.00     0.162 A 
ATOM     11  C   UNL     1      -5.320  -0.298  -0.887  1.00  0.00     0.161 A 
ATOM     12  C   UNL     1      -5.928   0.980   1.079  1.00  0.00     0.079 A 
ATOM     13  C   UNL     1      -4.114  -0.631  -0.266  1.00  0.00     0.064 A 
ATOM     14  C   UNL     1      -4.734   0.658   1.709  1.00  0.00     0.078 A 
ATOM     15  C   UNL     1      -3.811  -0.157   1.030  1.00  0.00     0.047 A 
ATOM     16  N   UNL     1      -4.504   1.138   2.945  1.00  0.00    -0.256 NA
ATOM     17  C   UNL     1      -3.347   0.811   3.560  1.00  0.00     0.115 A 
ATOM     18  C   UNL     1      -2.373   0.023   2.989  1.00  0.00     0.068 A 
BRANCH  10  19
ATOM     19  O   UNL     1      -7.400   0.808  -0.876  1.00  0.00    -0.493 OA
ATOM     20  C   UNL     1      -8.368   1.605  -0.206  1.00  0.00     0.278 C 
ENDBRANCH  10  19
BRANCH  11  21
ATOM     21  O   UNL     1      -5.689  -0.711  -2.142  1.00  0.00    -0.493 OA
ATOM     22  C   UNL     1      -4.798  -1.563  -2.848  1.00  0.00     0.278 C 
ENDBRANCH  11  21
ENDBRANCH   8   9
ENDBRANCH   1   8
BRANCH   4  23
ATOM     23  N   UNL     1       3.424   0.724  -0.117  1.00  0.00    -0.306 N 
ATOM     24  C   UNL     1       4.647   0.077  -0.114  1.00  0.00     0.324 C 
ATOM     25  O   UNL     1       4.816  -1.101   0.175  1.00  0.00    -0.248 OA
ATOM     26  N   UNL     1       5.659   0.937  -0.481  1.00  0.00    -0.289 N 
ATOM     27  H   UNL     1       3.417   1.693  -0.409  1.00  0.00     0.171 HD
ATOM     28  H   UNL     1       5.470   1.907  -0.675  1.00  0.00     0.173 HD
BRANCH  26  29
ATOM     29  C   UNL     1       6.990   0.602  -0.596  1.00  0.00     0.177 A 
ATOM     30  N   UNL     1       7.874   1.544  -0.944  1.00  0.00    -0.062 NA
ATOM     31  C   UNL     1       7.629  -0.642  -0.403  1.00  0.00     0.095 A 
ATOM     32  O   UNL     1       9.107   0.918  -0.979  1.00  0.00    -0.360 OA
ATOM     33  C   UNL     1       8.955  -0.393  -0.657  1.00  0.00     0.135 A 
ATOM     34  C   UNL     1      10.175  -1.218  -0.645  1.00  0.00     0.091 C 
ENDBRANCH  26  29
ENDBRANCH   4  23
TORSDOF 6
