REMARK SMILES Cc1cccc(N(C)C(=S)Oc2ccc3ccccc3c2)c1
REMARK SMILES IDX 9 1 10 2 7 3 8 4 6 5 22 6 5 7 2 8 4 9 3 10 1 11 11 12 12 13
REMARK SMILES IDX 21 14 13 15 20 16 14 17 19 18 15 19 18 20 16 21 17 22
REMARK H PARENT
ROOT
ATOM      1  C   UNL     1      -0.090  -1.300   1.212  1.00  0.00     0.269 C 
ATOM      2  S   UNL     1       1.126  -2.121   2.034  1.00  0.00    -0.018 S 
ENDROOT
BRANCH   1   3
ATOM      3  N   UNL     1      -1.454  -1.656   1.172  1.00  0.00    -0.306 N 
ATOM      4  C   UNL     1      -1.985  -2.679   2.082  1.00  0.00     0.154 C 
BRANCH   3   5
ATOM      5  C   UNL     1      -2.412  -0.977   0.341  1.00  0.00     0.045 A 
ATOM      6  C   UNL     1      -3.734  -0.783   0.778  1.00  0.00     0.029 A 
ATOM      7  C   UNL     1      -2.077  -0.535  -0.946  1.00  0.00     0.026 A 
ATOM      8  C   UNL     1      -4.687  -0.136  -0.026  1.00  0.00    -0.049 A 
ATOM      9  C   UNL     1      -3.021   0.096  -1.761  1.00  0.00     0.002 A 
ATOM     10  C   UNL     1      -4.321   0.293  -1.304  1.00  0.00     0.003 A 
ATOM     11  C   UNL     1      -6.095   0.044   0.462  1.00  0.00     0.044 C 
ENDBRANCH   3   5
ENDBRANCH   1   3
BRANCH   1  12
ATOM     12  O   UNL     1       0.202  -0.087   0.557  1.00  0.00    -0.432 OA
BRANCH  12  13
ATOM     13  C   UNL     1       1.487   0.478   0.363  1.00  0.00     0.130 A 
ATOM     14  C   UNL     1       2.307  -0.013  -0.650  1.00  0.00     0.056 A 
ATOM     15  C   UNL     1       1.853   1.566   1.144  1.00  0.00     0.048 A 
ATOM     16  C   UNL     1       3.558   0.580  -0.872  1.00  0.00    -0.015 A 
ATOM     17  C   UNL     1       3.095   2.161   0.929  1.00  0.00     0.012 A 
ATOM     18  C   UNL     1       4.422   0.107  -1.873  1.00  0.00     0.009 A 
ATOM     19  C   UNL     1       3.959   1.679  -0.072  1.00  0.00    -0.018 A 
ATOM     20  C   UNL     1       5.665   0.706  -2.083  1.00  0.00     0.001 A 
ATOM     21  C   UNL     1       5.212   2.269  -0.299  1.00  0.00     0.009 A 
ATOM     22  C   UNL     1       6.059   1.786  -1.298  1.00  0.00     0.001 A 
ENDBRANCH  12  13
ENDBRANCH   1  12
TORSDOF 4
