REMARK SMILES Cc1ccc(O)c([C@H](CCN(C(C)C)C(C)C)c2ccccc2)c1
REMARK SMILES IDX 9 1 10 2 11 3 12 4 13 5 14 6 15 7 16 8 17 9 8 10 18 11 19 12
REMARK SMILES IDX 23 13 20 14 22 15 21 16 7 17 5 18 24 19 4 20 2 21 3 22 1 23
REMARK SMILES IDX 6 24
REMARK H PARENT 6 25
ROOT
ATOM      1  C   UNL     1      -0.433  -0.659  -0.679  1.00  0.00     0.029 C 
ENDROOT
BRANCH   1   2
ATOM      2  C   UNL     1      -1.166   0.633  -0.278  1.00  0.00     0.086 C 
BRANCH   2   3
ATOM      3  N   UNL     1      -2.619   0.449  -0.350  1.00  0.00    -0.299 NA
BRANCH   3   4
ATOM      4  C   UNL     1      -3.351   0.468   0.929  1.00  0.00     0.050 C 
ATOM      5  C   UNL     1      -3.104  -0.848   1.679  1.00  0.00     0.024 C 
ATOM      6  C   UNL     1      -3.057   1.648   1.868  1.00  0.00     0.024 C 
ENDBRANCH   3   4
BRANCH   3   7
ATOM      7  C   UNL     1      -3.319   1.081  -1.482  1.00  0.00     0.050 C 
ATOM      8  C   UNL     1      -3.383   2.610  -1.430  1.00  0.00     0.024 C 
ATOM      9  C   UNL     1      -2.753   0.630  -2.836  1.00  0.00     0.024 C 
ENDBRANCH   3   7
ENDBRANCH   2   3
ENDBRANCH   1   2
BRANCH   1  10
ATOM     10  C   UNL     1       1.107  -0.481  -0.694  1.00  0.00     0.054 C 
BRANCH  10  11
ATOM     11  C   UNL     1       1.871  -1.632  -1.352  1.00  0.00    -0.040 A 
ATOM     12  C   UNL     1       3.080  -1.363  -2.019  1.00  0.00     0.004 A 
ATOM     13  C   UNL     1       1.427  -2.962  -1.300  1.00  0.00     0.004 A 
ATOM     14  C   UNL     1       3.807  -2.386  -2.631  1.00  0.00     0.000 A 
ATOM     15  C   UNL     1       2.155  -3.986  -1.912  1.00  0.00     0.000 A 
ATOM     16  C   UNL     1       3.343  -3.698  -2.579  1.00  0.00     0.000 A 
ENDBRANCH  10  11
BRANCH  10  17
ATOM     17  C   UNL     1       1.702  -0.095   0.660  1.00  0.00     0.002 A 
ATOM     18  C   UNL     1       1.573  -0.879   1.813  1.00  0.00     0.119 A 
ATOM     19  C   UNL     1       2.426   1.111   0.760  1.00  0.00     0.011 A 
ATOM     20  C   UNL     1       2.131  -0.473   3.027  1.00  0.00     0.047 A 
ATOM     21  C   UNL     1       3.003   1.522   1.970  1.00  0.00    -0.051 A 
ATOM     22  C   UNL     1       2.838   0.726   3.105  1.00  0.00     0.007 A 
ATOM     23  C   UNL     1       3.738   2.828   2.053  1.00  0.00     0.044 C 
BRANCH  18  24
ATOM     24  O   UNL     1       0.885  -2.057   1.758  1.00  0.00    -0.508 OA
ATOM     25  H   UNL     1       0.983  -2.518   2.607  1.00  0.00     0.293 HD
ENDBRANCH  18  24
ENDBRANCH  10  17
ENDBRANCH   1  10
TORSDOF 8
