REMARK SMILES Cc1ccccc1C(=O)Nc1ccc(C(=O)N2CCCC(O)c3cc(Cl)ccc32)c(C)c1
REMARK SMILES IDX 15 1 16 2 14 3 11 4 32 5 12 6 30 7 13 8 31 9 10 10 8 11 9 12
REMARK SMILES IDX 7 14 2 15 3 16 6 17 4 18 5 19 1 20 17 21 18 22 29 24 28 25
REMARK SMILES IDX 23 26 27 27 24 28 25 29 26 30 21 31 20 32 19 33 22 35
REMARK H PARENT 10 13 22 36
REMARK Flexibility Score:   57.900
ROOT
ATOM      1  C   UNL     1      -1.950   1.334  -0.550  1.00  0.00     0.258 C 
ATOM      2  O   UNL     1      -2.143   2.547  -0.591  1.00  0.00    -0.269 OA
ENDROOT
BRANCH   1   3
ATOM      3  C   UNL     1      -0.555   0.900  -0.332  1.00  0.00     0.043 A 
ATOM      4  C   UNL     1       2.118   0.118  -0.026  1.00  0.00     0.041 A 
ATOM      5  C   UNL     1       1.341   0.446   1.091  1.00  0.00     0.030 A 
ATOM      6  C   UNL     1       1.548   0.206  -1.302  1.00  0.00     0.027 A 
ATOM      7  C   UNL     1      -0.003   0.841   0.956  1.00  0.00    -0.036 A 
ATOM      8  C   UNL     1       0.219   0.601  -1.459  1.00  0.00     0.016 A 
ATOM      9  C   UNL     1      -0.772   1.268   2.174  1.00  0.00     0.045 C 
BRANCH   4  10
ATOM     10  N   UNL     1       3.468  -0.278   0.048  1.00  0.00    -0.322 N 
ATOM     11  C   UNL     1       4.214  -0.510   1.187  1.00  0.00     0.255 C 
ATOM     12  O   UNL     1       3.832  -0.503   2.349  1.00  0.00    -0.269 OA
ATOM     13  H   UNL     1       3.934  -0.450  -0.835  1.00  0.00     0.170 HD
BRANCH  11  14
ATOM     14  C   UNL     1       5.628  -0.869   0.910  1.00  0.00     0.043 A 
ATOM     15  C   UNL     1       6.505  -0.008   0.222  1.00  0.00    -0.038 A 
ATOM     16  C   UNL     1       7.808  -0.457  -0.041  1.00  0.00     0.004 A 
ATOM     17  C   UNL     1       6.067  -2.118   1.371  1.00  0.00     0.014 A 
ATOM     18  C   UNL     1       8.236  -1.711   0.401  1.00  0.00     0.000 A 
ATOM     19  C   UNL     1       7.370  -2.538   1.114  1.00  0.00     0.001 A 
ATOM     20  C   UNL     1       6.097   1.363  -0.239  1.00  0.00     0.045 C 
ENDBRANCH  11  14
ENDBRANCH   4  10
ENDBRANCH   1   3
BRANCH   1  21
ATOM     21  N   UNL     1      -2.945   0.351  -0.666  1.00  0.00    -0.308 N 
BRANCH  21  22
ATOM     22  C   UNL     1      -2.687  -1.096  -0.623  1.00  0.00     0.126 CG0
ATOM     23  G   UNL     1      -3.039  -1.752   0.702  1.00  0.00     0.000 G0
ENDBRANCH  21  22
BRANCH  21  24
ATOM     24  C   UNL     1      -4.277   0.737  -0.998  1.00  0.00     0.050 A 
ATOM     25  C   UNL     1      -4.481   1.607  -2.084  1.00  0.00     0.028 A 
ATOM     26  C   UNL     1      -5.387   0.255  -0.278  1.00  0.00     0.006 A 
ATOM     27  C   UNL     1      -5.768   1.966  -2.487  1.00  0.00     0.022 A 
ATOM     28  C   UNL     1      -6.681   0.627  -0.701  1.00  0.00     0.029 A 
ATOM     29  C   UNL     1      -6.864   1.466  -1.799  1.00  0.00     0.041 A 
ATOM     30  Cl  UNL     1      -8.454   1.900  -2.288  1.00  0.00    -0.084 Cl
BRANCH  26  31
ATOM     31  C   UNL     1      -5.264  -0.518   1.020  1.00  0.00     0.146 C 
BRANCH  31  32
ATOM     32  C   UNL     1      -4.546  -1.861   0.913  1.00  0.00     0.038 C 
BRANCH  32  33
ATOM     33  C   UNL     1      -3.039  -1.752   0.702  1.00  0.00     0.025 CG0
ATOM     34  G   UNL     1      -2.687  -1.096  -0.623  1.00  0.00     0.000 G0
ENDBRANCH  32  33
ENDBRANCH  31  32
BRANCH  31  35
ATOM     35  O   UNL     1      -4.650   0.277   2.034  1.00  0.00    -0.388 OA
ATOM     36  H   UNL     1      -4.455   1.154   1.656  1.00  0.00     0.211 HD
ENDBRANCH  31  35
ENDBRANCH  26  31
ENDBRANCH  21  24
ENDBRANCH   1  21
TORSDOF 5
