REMARK SMILES CCN(CC)CC(=O)Nc1c(C)cccc1C(=O)OC
REMARK SMILES IDX 7 1 8 2 9 3 6 5 3 6 2 7 1 8 4 9 5 10 10 11 16 12 11 13 15 14
REMARK SMILES IDX 13 15 14 16 12 17 17 18 18 19 19 20 20 21
REMARK H PARENT 9 4
ROOT
ATOM      1  C   UNL     1       0.422   0.272  -1.570  1.00  0.00     0.238 C 
ATOM      2  O   UNL     1       0.393  -0.530  -2.500  1.00  0.00    -0.273 OA
ATOM      3  N   UNL     1      -0.661   0.633  -0.778  1.00  0.00    -0.324 N 
ATOM      4  H   UNL     1      -0.394   0.900   0.172  1.00  0.00     0.170 HD
ENDROOT
BRANCH   1   5
ATOM      5  C   UNL     1       1.721   0.972  -1.135  1.00  0.00     0.185 C 
BRANCH   5   6
ATOM      6  N   UNL     1       2.657   0.033  -0.478  1.00  0.00    -0.295 NA
BRANCH   6   7
ATOM      7  C   UNL     1       4.024   0.575  -0.460  1.00  0.00     0.081 C 
ATOM      8  C   UNL     1       4.253   1.799   0.424  1.00  0.00     0.021 C 
ENDBRANCH   6   7
BRANCH   6   9
ATOM      9  C   UNL     1       2.160  -0.420   0.830  1.00  0.00     0.081 C 
ATOM     10  C   UNL     1       3.045  -1.465   1.503  1.00  0.00     0.021 C 
ENDBRANCH   6   9
ENDBRANCH   5   6
ENDBRANCH   1   5
BRANCH   3  11
ATOM     11  C   UNL     1      -1.981   0.117  -0.897  1.00  0.00     0.058 A 
ATOM     12  C   UNL     1      -2.678  -0.235   0.290  1.00  0.00     0.083 A 
ATOM     13  C   UNL     1      -2.641  -0.006  -2.140  1.00  0.00    -0.027 A 
ATOM     14  C   UNL     1      -3.973  -0.777   0.213  1.00  0.00     0.018 A 
ATOM     15  C   UNL     1      -3.928  -0.577  -2.182  1.00  0.00     0.005 A 
ATOM     16  C   UNL     1      -4.587  -0.962  -1.020  1.00  0.00     0.001 A 
ATOM     17  C   UNL     1      -2.079   0.475  -3.453  1.00  0.00     0.046 C 
BRANCH  12  18
ATOM     18  C   UNL     1      -2.036  -0.052   1.629  1.00  0.00     0.339 C 
ATOM     19  O   UNL     1      -1.007   0.588   1.801  1.00  0.00    -0.246 OA
BRANCH  18  20
ATOM     20  O   UNL     1      -2.732  -0.692   2.602  1.00  0.00    -0.465 OA
ATOM     21  C   UNL     1      -2.160  -0.575   3.906  1.00  0.00     0.282 C 
ENDBRANCH  18  20
ENDBRANCH  12  18
ENDBRANCH   3  11
TORSDOF 7
