REMARK SMILES NC[C@H]1CC[C@H](C(=O)O)CC1
REMARK SMILES IDX 3 1 11 2 10 3 6 4 5 5 4 6 2 7 1 8 7 11 8 12 9 13
REMARK H PARENT 1 9 1 10 9 14
ROOT
ATOM      1  C   UNL     1       1.172  -0.144   0.458  1.00  0.00     0.003 C 
ATOM      2  C   UNL     1       0.209   0.947   0.969  1.00  0.00     0.006 C 
ATOM      3  C   UNL     1      -0.839   1.336  -0.072  1.00  0.00     0.015 C 
ATOM      4  C   UNL     1      -1.717   0.139  -0.476  1.00  0.00     0.099 C 
ATOM      5  C   UNL     1      -0.976  -1.202  -0.392  1.00  0.00     0.015 C 
ATOM      6  C   UNL     1       0.522  -1.034  -0.621  1.00  0.00     0.006 C 
ENDROOT
BRANCH   1   7
ATOM      7  C   UNL     1       2.488   0.482  -0.044  1.00  0.00     0.081 C 
BRANCH   7   8
ATOM      8  N   UNL     1       3.455  -0.533  -0.448  1.00  0.00    -0.330 NA
ATOM      9  H   UNL     1       4.330  -0.081  -0.711  1.00  0.00     0.118 HD
ATOM     10  H   UNL     1       3.672  -1.134   0.347  1.00  0.00     0.118 HD
ENDBRANCH   7   8
ENDBRANCH   1   7
BRANCH   4  11
ATOM     11  C   UNL     1      -2.973   0.070   0.366  1.00  0.00     0.306 C 
ATOM     12  O   UNL     1      -3.163   0.581   1.456  1.00  0.00    -0.252 OA
BRANCH  11  13
ATOM     13  O   UNL     1      -3.939  -0.669  -0.217  1.00  0.00    -0.481 OA
ATOM     14  H   UNL     1      -4.679  -0.640   0.425  1.00  0.00     0.296 HD
ENDBRANCH  11  13
ENDBRANCH   4  11
TORSDOF 4
