REMARK SMILES CC(CNC(=O)c1ccccc1)C(=O)OCC(=O)[C@@]12OC(C)(C)O[C@@H]1C[C@H]1[C@@H]3CCC4=CC(=O)C=C[C@]4(C)[C@@]3(F)[C@@H](O)C[C@@]12C
REMARK SMILES IDX 15 1 13 2 14 3 2 4 1 5 3 6 4 7 5 8 6 9 7 11 8 12 12 13 9 14
REMARK SMILES IDX 11 15 10 16 16 17 17 18 18 19 19 20 20 21 25 22 44 23 21 24
REMARK SMILES IDX 24 25 26 26 43 27 27 28 41 29 28 30 39 31 29 32 37 33 30 34
REMARK SMILES IDX 36 35 31 36 35 37 32 38 33 39 34 40 45 41 22 42 23 43 40 44
REMARK SMILES IDX 38 45 42 46
REMARK H PARENT 4 10 42 47
ROOT
ATOM      1  O   UNL     1       2.685  -2.955   0.297  1.00  0.00    -0.457 OA
ENDROOT
BRANCH   1   2
ATOM      2  C   UNL     1       3.855  -2.576  -0.291  1.00  0.00     0.310 C 
ATOM      3  O   UNL     1       3.990  -2.324  -1.482  1.00  0.00    -0.252 OA
BRANCH   2   4
ATOM      4  C   UNL     1       4.941  -2.492   0.762  1.00  0.00     0.115 C 
ATOM      5  C   UNL     1       6.328  -2.663   0.148  1.00  0.00     0.022 C 
BRANCH   4   6
ATOM      6  C   UNL     1       4.771  -1.181   1.536  1.00  0.00     0.131 C 
BRANCH   6   7
ATOM      7  N   UNL     1       5.099   0.002   0.764  1.00  0.00    -0.351 N 
ATOM      8  C   UNL     1       4.417   1.196   0.944  1.00  0.00     0.251 C 
ATOM      9  O   UNL     1       3.413   1.326   1.643  1.00  0.00    -0.269 OA
ATOM     10  H   UNL     1       6.051   0.062   0.414  1.00  0.00     0.163 HD
BRANCH   8  11
ATOM     11  C   UNL     1       5.013   2.377   0.265  1.00  0.00     0.039 A 
ATOM     12  C   UNL     1       5.676   2.264  -0.972  1.00  0.00     0.014 A 
ATOM     13  C   UNL     1       4.915   3.625   0.890  1.00  0.00     0.014 A 
ATOM     14  C   UNL     1       6.260   3.386  -1.566  1.00  0.00     0.001 A 
ATOM     15  C   UNL     1       5.497   4.746   0.292  1.00  0.00     0.001 A 
ATOM     16  C   UNL     1       6.173   4.626  -0.931  1.00  0.00     0.000 A 
ENDBRANCH   8  11
ENDBRANCH   6   7
ENDBRANCH   4   6
ENDBRANCH   2   4
ENDBRANCH   1   2
BRANCH   1  17
ATOM     17  C   UNL     1       1.556  -2.942  -0.581  1.00  0.00     0.311 C 
BRANCH  17  18
ATOM     18  C   UNL     1       0.313  -3.315   0.213  1.00  0.00     0.205 C 
ATOM     19  O   UNL     1       0.368  -4.114   1.152  1.00  0.00    -0.292 OA
BRANCH  18  20
ATOM     20  C   UNL     1      -1.001  -2.627  -0.197  1.00  0.00     0.165 C 
ATOM     21  O   UNL     1      -1.079  -2.559  -1.623  1.00  0.00    -0.333 OA
ATOM     22  C   UNL     1      -2.251  -3.425   0.225  1.00  0.00     0.162 C 
ATOM     23  C   UNL     1      -1.210  -1.221   0.456  1.00  0.00     0.012 C 
ATOM     24  C   UNL     1      -1.963  -3.600  -2.048  1.00  0.00     0.164 C 
ATOM     25  O   UNL     1      -2.748  -4.060  -0.951  1.00  0.00    -0.344 OA
ATOM     26  C   UNL     1      -3.293  -2.409   0.736  1.00  0.00     0.040 C 
ATOM     27  C   UNL     1      -0.543  -0.024  -0.256  1.00  0.00     0.045 C 
ATOM     28  C   UNL     1      -2.739  -1.063   0.273  1.00  0.00     0.008 C 
ATOM     29  C   UNL     1      -1.068   1.353   0.217  1.00  0.00     0.154 C 
ATOM     30  C   UNL     1      -3.303   0.224   0.896  1.00  0.00     0.035 C 
ATOM     31  C   UNL     1      -2.627   1.455   0.199  1.00  0.00     0.152 C 
ATOM     32  C   UNL     1      -4.836   0.266   0.740  1.00  0.00     0.012 C 
ATOM     33  C   UNL     1      -3.234   2.825   0.712  1.00  0.00     0.044 C 
ATOM     34  C   UNL     1      -5.438   1.581   1.226  1.00  0.00     0.032 C 
ATOM     35  C   UNL     1      -2.667   4.000  -0.080  1.00  0.00    -0.009 C 
ATOM     36  C   UNL     1      -4.767   2.746   0.550  1.00  0.00    -0.053 C 
ATOM     37  C   UNL     1      -3.390   4.853  -0.818  1.00  0.00     0.048 C 
ATOM     38  C   UNL     1      -5.488   3.608  -0.191  1.00  0.00     0.052 C 
ATOM     39  C   UNL     1      -4.856   4.719  -0.928  1.00  0.00     0.178 C 
ATOM     40  O   UNL     1      -5.517   5.498  -1.605  1.00  0.00    -0.290 OA
ATOM     41  C   UNL     1      -0.776  -1.269   1.945  1.00  0.00     0.015 C 
ATOM     42  C   UNL     1      -2.884  -3.056  -3.132  1.00  0.00     0.075 C 
ATOM     43  C   UNL     1      -1.145  -4.766  -2.593  1.00  0.00     0.075 C 
ATOM     44  F   UNL     1      -2.971   1.359  -1.141  1.00  0.00    -0.239 F 
ATOM     45  C   UNL     1      -2.934   3.132   2.198  1.00  0.00     0.024 C 
BRANCH  29  46
ATOM     46  O   UNL     1      -0.516   1.652   1.497  1.00  0.00    -0.390 OA
ATOM     47  H   UNL     1       0.460   1.592   1.435  1.00  0.00     0.211 HD
ENDBRANCH  29  46
ENDBRANCH  18  20
ENDBRANCH  17  18
ENDBRANCH   1  17
TORSDOF 9
