REMARK SMILES CC(C)(C)CC(=O)OCC(=O)[C@@]12OC(C)(C)O[C@@H]1C[C@H]1[C@@H]3CCC4=CC(=O)C=C[C@]4(C)[C@@]3(F)[C@@H](O)C[C@@]12C
REMARK SMILES IDX 8 1 6 2 7 3 5 4 2 5 1 6 3 7 4 8 9 9 10 10 11 11 12 12 13 13
REMARK SMILES IDX 18 14 37 15 14 16 17 17 19 18 36 19 20 20 34 21 21 22 32 23
REMARK SMILES IDX 22 24 30 25 23 26 29 27 24 28 28 29 25 30 26 31 27 32 38 33
REMARK SMILES IDX 15 34 16 35 33 36 31 37 35 38
REMARK H PARENT 35 39
ROOT
ATOM      1  O   UNL     1       4.049   0.938  -0.582  1.00  0.00    -0.458 OA
ENDROOT
BRANCH   1   2
ATOM      2  C   UNL     1       3.931  -0.351  -1.004  1.00  0.00     0.306 C 
ATOM      3  O   UNL     1       2.949  -1.057  -0.817  1.00  0.00    -0.252 OA
BRANCH   2   4
ATOM      4  C   UNL     1       5.187  -0.801  -1.712  1.00  0.00     0.128 C 
BRANCH   4   5
ATOM      5  C   UNL     1       6.193  -1.551  -0.814  1.00  0.00    -0.028 C 
ATOM      6  C   UNL     1       6.677  -0.659   0.342  1.00  0.00     0.011 C 
ATOM      7  C   UNL     1       7.410  -1.938  -1.676  1.00  0.00     0.011 C 
ATOM      8  C   UNL     1       5.574  -2.836  -0.240  1.00  0.00     0.011 C 
ENDBRANCH   4   5
ENDBRANCH   2   4
ENDBRANCH   1   2
BRANCH   1   9
ATOM      9  C   UNL     1       2.871   1.452   0.038  1.00  0.00     0.311 C 
BRANCH   9  10
ATOM     10  C   UNL     1       1.784   1.815  -0.974  1.00  0.00     0.205 C 
ATOM     11  O   UNL     1       2.059   2.028  -2.159  1.00  0.00    -0.292 OA
BRANCH  10  12
ATOM     12  C   UNL     1       0.338   1.887  -0.450  1.00  0.00     0.165 C 
ATOM     13  O   UNL     1       0.324   2.303   0.920  1.00  0.00    -0.333 OA
ATOM     14  C   UNL     1      -0.503   2.953  -1.190  1.00  0.00     0.162 C 
ATOM     15  C   UNL     1      -0.483   0.573  -0.647  1.00  0.00     0.012 C 
ATOM     16  C   UNL     1      -0.020   3.695   0.933  1.00  0.00     0.164 C 
ATOM     17  O   UNL     1      -0.591   4.077  -0.314  1.00  0.00    -0.344 OA
ATOM     18  C   UNL     1      -1.916   2.356  -1.410  1.00  0.00     0.040 C 
ATOM     19  C   UNL     1      -0.285  -0.581   0.359  1.00  0.00     0.045 C 
ATOM     20  C   UNL     1      -1.912   1.151  -0.483  1.00  0.00     0.008 C 
ATOM     21  C   UNL     1      -1.435  -0.842   1.357  1.00  0.00     0.154 C 
ATOM     22  C   UNL     1      -2.947   0.038  -0.561  1.00  0.00     0.035 C 
ATOM     23  C   UNL     1      -2.916  -0.716   0.813  1.00  0.00     0.152 C 
ATOM     24  C   UNL     1      -4.360   0.503  -0.904  1.00  0.00     0.012 C 
ATOM     25  C   UNL     1      -3.873  -1.975   0.800  1.00  0.00     0.044 C 
ATOM     26  C   UNL     1      -5.290  -0.705  -1.000  1.00  0.00     0.032 C 
ATOM     27  C   UNL     1      -4.027  -2.608   2.186  1.00  0.00    -0.009 C 
ATOM     28  C   UNL     1      -5.263  -1.517   0.274  1.00  0.00    -0.053 C 
ATOM     29  C   UNL     1      -5.184  -2.826   2.826  1.00  0.00     0.048 C 
ATOM     30  C   UNL     1      -6.419  -1.745   0.925  1.00  0.00     0.052 C 
ATOM     31  C   UNL     1      -6.469  -2.442   2.223  1.00  0.00     0.178 C 
ATOM     32  O   UNL     1      -7.534  -2.682   2.778  1.00  0.00    -0.290 OA
ATOM     33  C   UNL     1      -0.218  -0.007  -2.071  1.00  0.00     0.015 C 
ATOM     34  C   UNL     1      -1.026   3.946   2.049  1.00  0.00     0.075 C 
ATOM     35  C   UNL     1       1.237   4.532   1.161  1.00  0.00     0.075 C 
ATOM     36  F   UNL     1      -3.510   0.171   1.715  1.00  0.00    -0.239 F 
ATOM     37  C   UNL     1      -3.335  -3.086  -0.129  1.00  0.00     0.024 C 
BRANCH  21  38
ATOM     38  O   UNL     1      -1.152  -2.087   1.995  1.00  0.00    -0.390 OA
ATOM     39  H   UNL     1      -0.273  -2.016   2.408  1.00  0.00     0.211 HD
ENDBRANCH  21  38
ENDBRANCH  10  12
ENDBRANCH   9  10
ENDBRANCH   1   9
TORSDOF 7
