REMARK SMILES CC(C)(C)c1cc(-c2cc(-c3ccc(C(=O)O)cc3)ccc2OCCO)ccc1N1CCCC1
REMARK SMILES IDX 8 1 22 2 21 3 20 4 10 5 9 6 7 7 5 8 6 9 29 10 28 11 27 12
REMARK SMILES IDX 2 13 1 14 3 15 4 16 30 17 31 18 34 19 32 20 33 21 23 22
REMARK SMILES IDX 24 23 25 24 26 25 11 27 12 28 19 29 13 30 18 31 14 32 15 33
REMARK SMILES IDX 16 34 17 35
REMARK H PARENT 26 26 17 36
ROOT
ATOM      1  C   UNL     1       1.419   0.499  -0.534  1.00  0.00     0.024 A 
ATOM      2  C   UNL     1       1.830   1.765  -1.006  1.00  0.00     0.127 A 
ATOM      3  C   UNL     1       3.190   2.036  -1.177  1.00  0.00     0.048 A 
ATOM      4  C   UNL     1       4.149   1.058  -0.893  1.00  0.00     0.012 A 
ATOM      5  C   UNL     1       3.776  -0.209  -0.426  1.00  0.00    -0.018 A 
ATOM      6  C   UNL     1       2.407  -0.468  -0.253  1.00  0.00     0.021 A 
ENDROOT
BRANCH   1   7
ATOM      7  C   UNL     1      -0.004   0.154  -0.342  1.00  0.00    -0.014 A 
ATOM      8  C   UNL     1      -2.192   0.604   0.763  1.00  0.00    -0.019 A 
ATOM      9  C   UNL     1      -0.815   0.879   0.551  1.00  0.00     0.015 A 
ATOM     10  C   UNL     1      -2.754  -0.476   0.032  1.00  0.00     0.040 A 
ATOM     11  C   UNL     1      -1.935  -1.201  -0.862  1.00  0.00     0.027 A 
ATOM     12  C   UNL     1      -0.588  -0.895  -1.047  1.00  0.00     0.011 A 
BRANCH   8  13
ATOM     13  C   UNL     1      -3.011   1.504   1.728  1.00  0.00    -0.011 C 
ATOM     14  C   UNL     1      -2.144   2.526   2.514  1.00  0.00     0.016 C 
ATOM     15  C   UNL     1      -4.027   2.341   0.920  1.00  0.00     0.016 C 
ATOM     16  C   UNL     1      -3.753   0.681   2.803  1.00  0.00     0.016 C 
ENDBRANCH   8  13
BRANCH  10  17
ATOM     17  N   UNL     1      -4.108  -0.831   0.175  1.00  0.00    -0.371 N 
ATOM     18  C   UNL     1      -4.318  -2.174   0.755  1.00  0.00     0.116 C 
ATOM     19  C   UNL     1      -4.914  -0.716  -1.060  1.00  0.00     0.116 C 
ATOM     20  C   UNL     1      -5.624  -2.648   0.131  1.00  0.00     0.023 C 
ATOM     21  C   UNL     1      -5.520  -2.099  -1.279  1.00  0.00     0.023 C 
ENDBRANCH  10  17
ENDBRANCH   1   7
BRANCH   2  22
ATOM     22  O   UNL     1       0.829   2.667  -1.262  1.00  0.00    -0.491 OA
BRANCH  22  23
ATOM     23  C   UNL     1       1.164   3.871  -1.956  1.00  0.00     0.257 C 
BRANCH  23  24
ATOM     24  C   UNL     1      -0.145   4.607  -2.229  1.00  0.00     0.197 C 
BRANCH  24  25
ATOM     25  O   UNL     1      -0.982   3.823  -3.078  1.00  0.00    -0.393 OA
ATOM     26  H   UNL     1      -1.042   2.944  -2.654  1.00  0.00     0.210 HD
ENDBRANCH  24  25
ENDBRANCH  23  24
ENDBRANCH  22  23
ENDBRANCH   2  22
BRANCH   5  27
ATOM     27  C   UNL     1       4.787  -1.234  -0.125  1.00  0.00    -0.018 A 
ATOM     28  C   UNL     1       5.729  -1.626  -1.091  1.00  0.00     0.009 A 
ATOM     29  C   UNL     1       4.838  -1.851   1.137  1.00  0.00     0.009 A 
ATOM     30  C   UNL     1       6.691  -2.601  -0.806  1.00  0.00     0.016 A 
ATOM     31  C   UNL     1       5.800  -2.826   1.428  1.00  0.00     0.016 A 
ATOM     32  C   UNL     1       6.730  -3.204   0.455  1.00  0.00     0.059 A 
BRANCH  32  33
ATOM     33  C   UNL     1       7.769  -4.230   0.713  1.00  0.00     0.335 C 
ATOM     34  O   UNL     1       8.595  -4.626  -0.088  1.00  0.00    -0.246 OA
BRANCH  33  35
ATOM     35  O   UNL     1       7.726  -4.713   1.968  1.00  0.00    -0.478 OA
ATOM     36  H   UNL     1       8.457  -5.366   1.992  1.00  0.00     0.297 HD
ENDBRANCH  33  35
ENDBRANCH  32  33
ENDBRANCH   5  27
TORSDOF 10
