REMARK SMILES CCN(CC)CC(=O)Nc1c(C)cc(C)cc1C
REMARK SMILES IDX 6 1 3 2 2 3 1 4 4 5 5 6 7 7 8 8 9 9 10 11 11 12 17 13 13 14
REMARK SMILES IDX 16 15 14 16 12 17 18 18 15 19
REMARK H PARENT 9 10
ROOT
ATOM      1  C   UNL     1      -2.213   0.682   0.732  1.00  0.00     0.185 C 
ENDROOT
BRANCH   1   2
ATOM      2  N   UNL     1      -2.443   0.279  -0.676  1.00  0.00    -0.295 NA
BRANCH   2   3
ATOM      3  C   UNL     1      -3.598   0.967  -1.269  1.00  0.00     0.081 C 
ATOM      4  C   UNL     1      -4.971   0.629  -0.700  1.00  0.00     0.021 C 
ENDBRANCH   2   3
BRANCH   2   5
ATOM      5  C   UNL     1      -2.436  -1.177  -0.916  1.00  0.00     0.081 C 
ATOM      6  C   UNL     1      -3.049  -2.086   0.146  1.00  0.00     0.021 C 
ENDBRANCH   2   5
ENDBRANCH   1   2
BRANCH   1   7
ATOM      7  C   UNL     1      -0.774   0.402   1.198  1.00  0.00     0.238 C 
ATOM      8  O   UNL     1      -0.518   0.318   2.395  1.00  0.00    -0.273 OA
ATOM      9  N   UNL     1       0.127   0.390   0.150  1.00  0.00    -0.324 N 
ATOM     10  H   UNL     1      -0.298   0.710  -0.714  1.00  0.00     0.169 HD
BRANCH   9  11
ATOM     11  C   UNL     1       1.531   0.234   0.168  1.00  0.00     0.047 A 
ATOM     12  C   UNL     1       2.235  -0.559   1.097  1.00  0.00    -0.027 A 
ATOM     13  C   UNL     1       2.254   0.898  -0.857  1.00  0.00    -0.027 A 
ATOM     14  C   UNL     1       3.645  -0.586   1.050  1.00  0.00     0.009 A 
ATOM     15  C   UNL     1       3.658   0.822  -0.891  1.00  0.00     0.009 A 
ATOM     16  C   UNL     1       4.362   0.087   0.060  1.00  0.00    -0.050 A 
ATOM     17  C   UNL     1       1.594  -1.445   2.130  1.00  0.00     0.046 C 
ATOM     18  C   UNL     1       1.572   1.730  -1.914  1.00  0.00     0.046 C 
ATOM     19  C   UNL     1       5.861   0.056   0.049  1.00  0.00     0.044 C 
ENDBRANCH   9  11
ENDBRANCH   1   7
TORSDOF 5
