REMARK SMILES O=P1(N(CCCl)CCCl)OCCCN1CCCl
REMARK SMILES IDX 2 1 1 2 10 3 11 4 12 5 13 6 14 7 3 8 4 9 5 10 6 11 7 12 8 13
REMARK SMILES IDX 9 14 15 15 16 16 17 17
REMARK H PARENT
ROOT
ATOM      1  P   UNL     1      -0.025  -0.519   0.782  1.00  0.00     0.346 P 
ATOM      2  O   UNL     1       0.084  -0.753   2.259  1.00  0.00    -0.255 OA
ATOM      3  O   UNL     1      -0.288  -1.905  -0.001  1.00  0.00    -0.306 OA
ATOM      4  C   UNL     1       0.800  -2.808  -0.022  1.00  0.00     0.172 C 
ATOM      5  C   UNL     1       1.973  -2.164  -0.742  1.00  0.00     0.045 C 
ATOM      6  C   UNL     1       2.439  -0.884  -0.039  1.00  0.00     0.098 C 
ATOM      7  N   UNL     1       1.351   0.094   0.091  1.00  0.00    -0.218 NA
ENDROOT
BRANCH   1   8
ATOM      8  N   UNL     1      -1.256   0.469   0.315  1.00  0.00    -0.217 NA
BRANCH   8   9
ATOM      9  C   UNL     1      -1.594   0.525  -1.114  1.00  0.00     0.111 C 
BRANCH   9  10
ATOM     10  C   UNL     1      -2.038   1.902  -1.626  1.00  0.00     0.125 C 
ATOM     11  Cl  UNL     1      -3.805   2.110  -1.620  1.00  0.00    -0.125 Cl
ENDBRANCH   9  10
ENDBRANCH   8   9
BRANCH   8  12
ATOM     12  C   UNL     1      -2.407   0.556   1.225  1.00  0.00     0.111 C 
BRANCH  12  13
ATOM     13  C   UNL     1      -3.148  -0.751   1.556  1.00  0.00     0.125 C 
ATOM     14  Cl  UNL     1      -4.236  -1.286   0.257  1.00  0.00    -0.125 Cl
ENDBRANCH  12  13
ENDBRANCH   8  12
ENDBRANCH   1   8
BRANCH   7  15
ATOM     15  C   UNL     1       1.830   1.343   0.720  1.00  0.00     0.111 C 
BRANCH  15  16
ATOM     16  C   UNL     1       2.815   2.179  -0.107  1.00  0.00     0.125 C 
ATOM     17  Cl  UNL     1       4.514   1.815   0.289  1.00  0.00    -0.125 Cl
ENDBRANCH  15  16
ENDBRANCH   7  15
TORSDOF 7
