REMARK SMILES CN1[C@@H]2CC[C@H]1C[C@@H](OC(=O)c1c[nH]c3ccccc13)C2
REMARK SMILES IDX 10 1 11 2 9 3 8 4 2 5 6 6 3 7 5 8 7 9 4 10 21 11 1 12 12 13
REMARK SMILES IDX 13 14 20 15 14 16 15 17 19 18 16 19 18 20 17 21
REMARK H PARENT 14 22
ROOT
ATOM      1  C   UNL     1       1.202  -1.341  -0.998  1.00  0.00     0.340 C 
ATOM      2  O   UNL     1       0.710  -2.239  -1.672  1.00  0.00    -0.246 OA
ENDROOT
BRANCH   1   3
ATOM      3  O   UNL     1       0.505  -0.271  -0.519  1.00  0.00    -0.459 OA
BRANCH   3   4
ATOM      4  C   UNL     1      -0.899  -0.215  -0.843  1.00  0.00     0.180 C 
ATOM      5  N   UNL     1      -3.526   0.177  -0.833  1.00  0.00    -0.300 NA
ATOM      6  C   UNL     1      -2.844   1.423  -0.441  1.00  0.00     0.060 C 
ATOM      7  C   UNL     1      -3.161  -0.736   0.266  1.00  0.00     0.060 C 
ATOM      8  C   UNL     1      -3.093   1.544   1.067  1.00  0.00     0.021 C 
ATOM      9  C   UNL     1      -1.343   1.254  -0.737  1.00  0.00     0.064 C 
ATOM     10  C   UNL     1      -3.300   0.110   1.537  1.00  0.00     0.021 C 
ATOM     11  C   UNL     1      -1.699  -1.173   0.055  1.00  0.00     0.064 C 
ATOM     12  C   UNL     1      -4.971   0.340  -0.978  1.00  0.00     0.105 C 
ENDBRANCH   3   4
ENDBRANCH   1   3
BRANCH   1  13
ATOM     13  C   UNL     1       2.612  -1.316  -0.619  1.00  0.00     0.085 A 
ATOM     14  C   UNL     1       3.519  -2.297  -0.989  1.00  0.00     0.099 A 
ATOM     15  C   UNL     1       3.348  -0.358   0.161  1.00  0.00     0.014 A 
ATOM     16  N   UNL     1       4.744  -1.980  -0.477  1.00  0.00    -0.360 N 
ATOM     17  C   UNL     1       4.672  -0.803   0.230  1.00  0.00     0.046 A 
ATOM     18  C   UNL     1       3.025   0.849   0.820  1.00  0.00     0.011 A 
ATOM     19  C   UNL     1       5.676  -0.109   0.917  1.00  0.00     0.027 A 
ATOM     20  C   UNL     1       4.016   1.556   1.512  1.00  0.00     0.001 A 
ATOM     21  C   UNL     1       5.323   1.080   1.558  1.00  0.00     0.002 A 
ATOM     22  H   UNL     1       5.587  -2.526  -0.596  1.00  0.00     0.166 HD
ENDBRANCH   1  13
TORSDOF 3
