REMARK SMILES Cc1cc(-c2ccc(/N=N/c3c(S(=O)(=O)O)cc4cc(S(=O)(=O)O)cc(N)c4c3O)c(C)c2)ccc1/N=N/c1c(S(=O)(=O)O)cc2cc(S(=O)(=O)O)cc(N)c2c1O
REMARK SMILES IDX 1 1 2 2 36 3 35 4 34 5 4 6 3 7 37 8 38 9 39 10 57 11 40 12
REMARK SMILES IDX 56 13 45 14 54 15 46 16 53 17 47 18 48 19 58 20 41 22 42 23
REMARK SMILES IDX 43 24 44 25 55 27 49 30 50 31 51 32 52 33 5 35 33 36 6 37
REMARK SMILES IDX 31 38 7 39 8 40 32 41 9 42 10 43 11 44 29 45 12 46 28 47
REMARK SMILES IDX 17 48 26 49 18 50 25 51 19 52 20 53 30 54 13 56 14 57 15 58
REMARK SMILES IDX 16 59 27 61 21 64 22 65 23 66 24 67
REMARK H PARENT 58 21 44 26 55 28 55 29 52 34 30 55 16 60 27 62 27 63 24 68
ROOT
ATOM      1  C   UNL     1      -3.338  -2.781   1.795  1.00  0.00     0.047 C 
ATOM      2  C   UNL     1      -2.748  -1.701   0.930  1.00  0.00    -0.023 A 
ATOM      3  C   UNL     1      -3.559  -0.775   0.253  1.00  0.00     0.089 A 
ATOM      4  C   UNL     1      -2.947   0.197  -0.554  1.00  0.00     0.031 A 
ATOM      5  C   UNL     1      -1.555   0.294  -0.638  1.00  0.00     0.011 A 
ATOM      6  C   UNL     1      -0.730  -0.584   0.077  1.00  0.00    -0.018 A 
ATOM      7  C   UNL     1      -1.347  -1.583   0.850  1.00  0.00     0.014 A 
ENDROOT
BRANCH   3   8
ATOM      8  N   UNL     1      -4.965  -0.842   0.359  1.00  0.00    -0.150 NA
ATOM      9  N   UNL     1      -5.432   0.258   0.732  1.00  0.00    -0.145 NA
BRANCH   9  10
ATOM     10  C   UNL     1      -6.841   0.214   0.746  1.00  0.00     0.149 A 
ATOM     11  C   UNL     1      -7.571   0.613  -0.390  1.00  0.00     0.154 A 
ATOM     12  C   UNL     1      -7.564  -0.171   1.871  1.00  0.00     0.126 A 
ATOM     13  C   UNL     1      -8.996   0.623  -0.434  1.00  0.00     0.049 A 
ATOM     14  C   UNL     1      -8.967  -0.189   1.868  1.00  0.00     0.034 A 
ATOM     15  C   UNL     1      -9.764   1.017  -1.573  1.00  0.00     0.045 A 
ATOM     16  C   UNL     1      -9.686   0.199   0.730  1.00  0.00    -0.010 A 
ATOM     17  C   UNL     1     -11.161   1.043  -1.514  1.00  0.00     0.049 A 
ATOM     18  C   UNL     1     -11.087   0.182   0.753  1.00  0.00     0.032 A 
ATOM     19  C   UNL     1     -11.810   0.606  -0.362  1.00  0.00     0.097 A 
BRANCH  11  20
ATOM     20  O   UNL     1      -6.847   0.995  -1.503  1.00  0.00    -0.505 OA
ATOM     21  H   UNL     1      -7.501   1.121  -2.227  1.00  0.00     0.293 HD
ENDBRANCH  11  20
BRANCH  12  22
ATOM     22  S   UNL     1      -6.725  -0.615   3.360  1.00  0.00     0.296 S 
ATOM     23  O   UNL     1      -7.599  -0.277   4.463  1.00  0.00    -0.194 OA
ATOM     24  O   UNL     1      -6.221  -1.959   3.181  1.00  0.00    -0.194 OA
BRANCH  22  25
ATOM     25  O   UNL     1      -5.445   0.362   3.457  1.00  0.00    -0.282 OA
ATOM     26  H   UNL     1      -4.769   0.062   2.807  1.00  0.00     0.234 HD
ENDBRANCH  22  25
ENDBRANCH  12  22
BRANCH  15  27
ATOM     27  N   UNL     1      -9.122   1.615  -2.696  1.00  0.00    -0.398 N 
ATOM     28  H   UNL     1      -9.695   1.515  -3.537  1.00  0.00     0.156 HD
ATOM     29  H   UNL     1      -9.019   2.620  -2.521  1.00  0.00     0.156 HD
ENDBRANCH  15  27
BRANCH  19  30
ATOM     30  S   UNL     1     -13.579   0.640  -0.320  1.00  0.00     0.294 S 
ATOM     31  O   UNL     1     -14.014   0.477   1.049  1.00  0.00    -0.194 OA
ATOM     32  O   UNL     1     -14.056  -0.211  -1.385  1.00  0.00    -0.194 OA
BRANCH  30  33
ATOM     33  O   UNL     1     -13.950   2.165  -0.699  1.00  0.00    -0.282 OA
ATOM     34  H   UNL     1     -14.613   2.476  -0.048  1.00  0.00     0.234 HD
ENDBRANCH  30  33
ENDBRANCH  19  30
ENDBRANCH   9  10
ENDBRANCH   3   8
BRANCH   6  35
ATOM     35  C   UNL     1       0.736  -0.453   0.034  1.00  0.00    -0.018 A 
ATOM     36  C   UNL     1       1.356   0.776   0.313  1.00  0.00     0.014 A 
ATOM     37  C   UNL     1       1.559  -1.548  -0.265  1.00  0.00     0.011 A 
ATOM     38  C   UNL     1       2.756   0.918   0.303  1.00  0.00    -0.023 A 
ATOM     39  C   UNL     1       2.952  -1.419  -0.283  1.00  0.00     0.031 A 
ATOM     40  C   UNL     1       3.566  -0.188  -0.010  1.00  0.00     0.089 A 
ATOM     41  C   UNL     1       3.370   2.254   0.621  1.00  0.00     0.047 C 
BRANCH  40  42
ATOM     42  N   UNL     1       4.969  -0.038   0.012  1.00  0.00    -0.150 NA
ATOM     43  N   UNL     1       5.512  -0.547  -0.991  1.00  0.00    -0.145 NA
BRANCH  43  44
ATOM     44  C   UNL     1       6.893  -0.251  -0.997  1.00  0.00     0.149 A 
ATOM     45  C   UNL     1       7.758  -0.834  -0.047  1.00  0.00     0.154 A 
ATOM     46  C   UNL     1       7.454   0.597  -1.945  1.00  0.00     0.126 A 
ATOM     47  C   UNL     1       9.161  -0.586  -0.012  1.00  0.00     0.049 A 
ATOM     48  C   UNL     1       8.823   0.889  -1.937  1.00  0.00     0.034 A 
ATOM     49  C   UNL     1      10.076  -1.151   0.935  1.00  0.00     0.045 A 
ATOM     50  C   UNL     1       9.675   0.316  -0.982  1.00  0.00    -0.010 A 
ATOM     51  C   UNL     1      11.440  -0.847   0.873  1.00  0.00     0.049 A 
ATOM     52  C   UNL     1      11.039   0.638  -0.998  1.00  0.00     0.032 A 
ATOM     53  C   UNL     1      11.907   0.060  -0.073  1.00  0.00     0.097 A 
BRANCH  45  54
ATOM     54  O   UNL     1       7.199  -1.658   0.916  1.00  0.00    -0.505 OA
ATOM     55  H   UNL     1       6.229  -1.605   0.797  1.00  0.00     0.293 HD
ENDBRANCH  45  54
BRANCH  46  56
ATOM     56  S   UNL     1       6.429   1.333  -3.179  1.00  0.00     0.296 S 
ATOM     57  O   UNL     1       7.281   1.757  -4.269  1.00  0.00    -0.194 OA
ATOM     58  O   UNL     1       5.537   2.257  -2.512  1.00  0.00    -0.194 OA
BRANCH  56  59
ATOM     59  O   UNL     1       5.507   0.134  -3.739  1.00  0.00    -0.282 OA
ATOM     60  H   UNL     1       4.619   0.226  -3.332  1.00  0.00     0.234 HD
ENDBRANCH  56  59
ENDBRANCH  46  56
BRANCH  49  61
ATOM     61  N   UNL     1       9.679  -2.178   1.815  1.00  0.00    -0.398 N 
ATOM     62  H   UNL     1      10.177  -2.195   2.699  1.00  0.00     0.156 HD
ATOM     63  H   UNL     1       8.663  -2.195   1.934  1.00  0.00     0.156 HD
ENDBRANCH  49  61
BRANCH  53  64
ATOM     64  S   UNL     1      13.634   0.435  -0.115  1.00  0.00     0.294 S 
ATOM     65  O   UNL     1      13.966   1.116   1.115  1.00  0.00    -0.194 OA
ATOM     66  O   UNL     1      13.947   0.996  -1.413  1.00  0.00    -0.194 OA
BRANCH  64  67
ATOM     67  O   UNL     1      14.358  -1.008  -0.100  1.00  0.00    -0.282 OA
ATOM     68  H   UNL     1      14.936  -1.058  -0.891  1.00  0.00     0.234 HD
ENDBRANCH  64  67
ENDBRANCH  53  64
ENDBRANCH  43  44
ENDBRANCH  40  42
ENDBRANCH   6  35
TORSDOF 17
