REMARK SMILES COc1cc2c3cc1Oc1cc(ccc1O)C[C@@H]1c4c(cc(OC)c(O)c4Oc4ccc(cc4)C[C@@H]3N(C)CC2)CC[N+]1(C)C
REMARK SMILES IDX 35 1 36 2 3 3 4 4 8 5 5 6 7 7 6 8 40 9 39 10 37 11 38 12
REMARK SMILES IDX 2 13 1 14 9 15 10 16 11 17 15 18 12 19 14 20 13 21 16 22
REMARK SMILES IDX 17 24 32 26 31 27 33 28 30 29 34 30 29 31 28 32 27 33 19 34
REMARK SMILES IDX 25 35 18 36 20 37 22 38 43 39 21 40 41 41 42 42 44 43 45 44
REMARK SMILES IDX 26 46 23 48 24 49
REMARK H PARENT 16 23 26 47
REMARK Flexibility Score:   94.900
ROOT
ATOM      1  C   UNL     1       3.477   2.514   0.116  1.00  0.00     0.059 C 
ENDROOT
BRANCH   1   2
ATOM      2  C   UNL     1       4.019   1.322   0.968  1.00  0.00     0.091 C 
ATOM      3  C   UNL     1       4.174  -2.332  -1.405  1.00  0.00     0.161 A 
ATOM      4  C   UNL     1       5.349  -1.627  -1.124  1.00  0.00     0.054 A 
ATOM      5  C   UNL     1       2.961  -1.866  -0.882  1.00  0.00     0.169 A 
ATOM      6  C   UNL     1       5.319  -0.448  -0.353  1.00  0.00    -0.038 A 
ATOM      7  C   UNL     1       2.935  -0.712  -0.091  1.00  0.00     0.056 A 
ATOM      8  C   UNL     1       4.102   0.024   0.164  1.00  0.00    -0.023 A 
ATOM      9  C   UNL     1       6.615   0.247  -0.013  1.00  0.00     0.051 C 
ATOM     10  C   UNL     1       6.415   1.633   0.613  1.00  0.00     0.089 C 
ATOM     11  N   UNL     1       5.312   1.714   1.584  1.00  0.00    -0.299 NA
ATOM     12  C   UNL     1       5.595   0.944   2.797  1.00  0.00     0.106 C 
BRANCH   3  13
ATOM     13  O   UNL     1       4.104  -3.492  -2.135  1.00  0.00    -0.493 OA
ATOM     14  C   UNL     1       5.304  -3.946  -2.749  1.00  0.00     0.278 C 
ENDBRANCH   3  13
BRANCH   5  15
ATOM     15  O   UNL     1       1.810  -2.551  -1.241  1.00  0.00    -0.450 OA
BRANCH  15  16
ATOM     16  C   UNL     1       0.854  -2.688  -0.265  1.00  0.00     0.169 A 
ATOM     17  C   UNL     1      -0.220  -1.794  -0.232  1.00  0.00     0.055 A 
ATOM     18  C   UNL     1       0.936  -3.727   0.657  1.00  0.00     0.158 A 
ATOM     19  C   UNL     1      -1.180  -1.884   0.785  1.00  0.00    -0.038 A 
ATOM     20  C   UNL     1      -0.010  -3.836   1.666  1.00  0.00     0.050 A 
ATOM     21  C   UNL     1      -1.050  -2.904   1.745  1.00  0.00     0.008 A 
BRANCH  18  22
ATOM     22  O   UNL     1       1.935  -4.654   0.607  1.00  0.00    -0.504 OA
ATOM     23  H   UNL     1       2.515  -4.422  -0.145  1.00  0.00     0.293 HD
ENDBRANCH  18  22
BRANCH  19  24
ATOM     24  C   UNL     1      -2.268  -0.843   0.923  1.00  0.00     0.106 CG0
ATOM     25  G   UNL     1      -3.178  -0.576  -0.321  1.00  0.00     0.000 G0
ENDBRANCH  19  24
ENDBRANCH  15  16
ENDBRANCH   5  15
ENDBRANCH   1   2
BRANCH   1  26
ATOM     26  C   UNL     1       2.020   2.393  -0.288  1.00  0.00    -0.046 A 
ATOM     27  C   UNL     1       0.994   2.606   0.644  1.00  0.00     0.007 A 
ATOM     28  C   UNL     1       1.680   2.025  -1.596  1.00  0.00     0.007 A 
ATOM     29  C   UNL     1      -0.346   2.420   0.287  1.00  0.00     0.047 A 
ATOM     30  C   UNL     1       0.345   1.832  -1.949  1.00  0.00     0.047 A 
ATOM     31  C   UNL     1      -0.671   2.012  -1.007  1.00  0.00     0.127 A 
BRANCH  31  32
ATOM     32  O   UNL     1      -1.934   1.729  -1.478  1.00  0.00    -0.453 OA
BRANCH  32  33
ATOM     33  C   UNL     1      -3.032   1.947  -0.679  1.00  0.00     0.182 A 
ATOM     34  C   UNL     1      -3.744   0.834  -0.190  1.00  0.00     0.060 A 
ATOM     35  C   UNL     1      -3.533   3.245  -0.512  1.00  0.00     0.201 A 
ATOM     36  C   UNL     1      -3.178  -0.576  -0.321  1.00  0.00     0.225 CG0
ATOM     37  C   UNL     1      -4.979   1.048   0.452  1.00  0.00    -0.026 A 
ATOM     38  C   UNL     1      -4.722   3.465   0.191  1.00  0.00     0.164 A 
ATOM     39  N   UNL     1      -4.327  -1.634  -0.492  1.00  0.00    -0.322 N 
ATOM     40  C   UNL     1      -5.444   2.363   0.655  1.00  0.00     0.055 A 
ATOM     41  C   UNL     1      -5.900  -0.094   0.807  1.00  0.00     0.097 C 
ATOM     42  C   UNL     1      -5.328  -1.506   0.657  1.00  0.00     0.268 C 
ATOM     43  C   UNL     1      -5.019  -1.407  -1.847  1.00  0.00     0.334 C 
ATOM     44  C   UNL     1      -3.784  -3.063  -0.527  1.00  0.00     0.334 C 
ATOM     45  G   UNL     1      -2.268  -0.843   0.923  1.00  0.00     0.000 G0
BRANCH  35  46
ATOM     46  O   UNL     1      -2.883   4.325  -1.049  1.00  0.00    -0.502 OA
ATOM     47  H   UNL     1      -2.120   4.020  -1.568  1.00  0.00     0.293 HD
ENDBRANCH  35  46
BRANCH  38  48
ATOM     48  O   UNL     1      -5.114   4.769   0.323  1.00  0.00    -0.493 OA
ATOM     49  C   UNL     1      -6.208   5.051   1.184  1.00  0.00     0.278 C 
ENDBRANCH  38  48
ENDBRANCH  32  33
ENDBRANCH  31  32
ENDBRANCH   1  26
TORSDOF 4
