REMARK SMILES Cc1cc(Nc2ncnc3ccc(NC4=NC(C)(C)CO4)cc23)ccc1Oc1ccn2ncnc2c1
REMARK SMILES IDX 5 1 4 3 2 4 3 5 26 6 25 7 24 8 1 9 27 10 28 11 36 12 29 13
REMARK SMILES IDX 35 14 30 15 34 16 31 17 33 18 32 19 6 20 7 21 23 22 8 23
REMARK SMILES IDX 10 24 22 25 9 26 11 27 13 28 12 29 14 30 15 31 16 32 21 33
REMARK SMILES IDX 17 34 20 35 18 37 19 38
REMARK H PARENT 5 2 14 36
ROOT
ATOM      1  N   UNL     1       0.500   0.051  -0.037  1.00  0.00    -0.340 N 
ATOM      2  H   UNL     1       0.170  -0.043  -0.992  1.00  0.00     0.168 HD
ENDROOT
BRANCH   1   3
ATOM      3  C   UNL     1       1.855  -0.341   0.078  1.00  0.00     0.040 A 
ATOM      4  C   UNL     1       3.937  -0.547   1.357  1.00  0.00    -0.006 A 
ATOM      5  C   UNL     1       2.613  -0.095   1.233  1.00  0.00     0.033 A 
ATOM      6  C   UNL     1       4.501  -1.259   0.293  1.00  0.00     0.130 A 
ATOM      7  C   UNL     1       3.747  -1.570  -0.838  1.00  0.00     0.049 A 
ATOM      8  C   UNL     1       2.429  -1.118  -0.938  1.00  0.00     0.030 A 
ATOM      9  C   UNL     1       4.727  -0.247   2.596  1.00  0.00     0.048 C 
BRANCH   6  10
ATOM     10  O   UNL     1       5.791  -1.720   0.392  1.00  0.00    -0.457 OA
BRANCH  10  11
ATOM     11  C   UNL     1       6.779  -1.094  -0.353  1.00  0.00     0.132 C 
ATOM     12  C   UNL     1       6.696   0.122  -0.942  1.00  0.00     0.096 C 
ATOM     13  C   UNL     1       8.012  -1.873  -0.423  1.00  0.00     0.067 C 
ATOM     14  C   UNL     1       7.811   0.638  -1.662  1.00  0.00     0.158 A 
ATOM     15  C   UNL     1       9.066  -1.384  -1.098  1.00  0.00     0.119 C 
ATOM     16  N   UNL     1       7.990   1.759  -2.324  1.00  0.00    -0.215 NA
ATOM     17  N   UNL     1       8.971  -0.139  -1.716  1.00  0.00    -0.221 N 
ATOM     18  C   UNL     1       9.270   1.642  -2.774  1.00  0.00     0.247 A 
ATOM     19  N   UNL     1       9.908   0.519  -2.440  1.00  0.00    -0.155 NA
ENDBRANCH  10  11
ENDBRANCH   6  10
ENDBRANCH   1   3
BRANCH   1  20
ATOM     20  C   UNL     1      -0.126   1.195   0.535  1.00  0.00     0.141 A 
ATOM     21  N   UNL     1       0.640   2.195   1.009  1.00  0.00    -0.219 NA
ATOM     22  C   UNL     1      -1.534   1.258   0.556  1.00  0.00     0.045 A 
ATOM     23  C   UNL     1       0.003   3.268   1.483  1.00  0.00     0.224 A 
ATOM     24  C   UNL     1      -2.074   2.440   1.073  1.00  0.00     0.076 A 
ATOM     25  C   UNL     1      -2.410   0.227   0.113  1.00  0.00     0.040 A 
ATOM     26  N   UNL     1      -1.321   3.443   1.530  1.00  0.00    -0.236 NA
ATOM     27  C   UNL     1      -3.453   2.572   1.108  1.00  0.00     0.031 A 
ATOM     28  C   UNL     1      -3.805   0.357   0.167  1.00  0.00     0.043 A 
ATOM     29  C   UNL     1      -4.311   1.558   0.658  1.00  0.00     0.028 A 
BRANCH  28  30
ATOM     30  N   UNL     1      -4.601  -0.696  -0.301  1.00  0.00    -0.310 N 
ATOM     31  C   UNL     1      -5.954  -0.795  -0.366  1.00  0.00     0.289 C 
ATOM     32  N   UNL     1      -6.884   0.065  -0.116  1.00  0.00    -0.225 NA
ATOM     33  O   UNL     1      -6.329  -2.037  -0.781  1.00  0.00    -0.462 OA
ATOM     34  C   UNL     1      -8.141  -0.680  -0.298  1.00  0.00     0.095 C 
ATOM     35  C   UNL     1      -7.721  -1.929  -1.054  1.00  0.00     0.263 C 
ATOM     36  H   UNL     1      -4.120  -1.556  -0.521  1.00  0.00     0.171 HD
ATOM     37  C   UNL     1      -9.126   0.171  -1.092  1.00  0.00     0.040 C 
ATOM     38  C   UNL     1      -8.709  -1.010   1.086  1.00  0.00     0.040 C 
ENDBRANCH  28  30
ENDBRANCH   1  20
TORSDOF 5
