REMARK SMILES CCCCNC(=O)OCC(C)(CCC)COC(N)=O
REMARK SMILES IDX 8 1 6 2 5 3 7 4 4 6 3 7 2 8 1 9 9 10 10 11 11 12 12 13 13 14
REMARK SMILES IDX 14 15 15 16 16 17 17 18 18 19 19 20
REMARK H PARENT 5 5 18 21 18 22
ROOT
ATOM      1  O   UNL     1       0.473   0.235   0.210  1.00  0.00    -0.449 OA
ENDROOT
BRANCH   1   2
ATOM      2  C   UNL     1       1.405   0.019  -0.748  1.00  0.00     0.407 C 
ATOM      3  N   UNL     1       2.322   1.024  -0.699  1.00  0.00    -0.321 N 
ATOM      4  O   UNL     1       1.428  -0.921  -1.527  1.00  0.00    -0.225 OA
ATOM      5  H   UNL     1       2.207   1.689   0.052  1.00  0.00     0.167 HD
BRANCH   3   6
ATOM      6  C   UNL     1       3.502   1.052  -1.529  1.00  0.00     0.119 C 
BRANCH   6   7
ATOM      7  C   UNL     1       4.633   0.185  -0.976  1.00  0.00     0.021 C 
BRANCH   7   8
ATOM      8  C   UNL     1       5.173   0.706   0.358  1.00  0.00    -0.002 C 
ATOM      9  C   UNL     1       6.330  -0.144   0.858  1.00  0.00     0.004 C 
ENDBRANCH   7   8
ENDBRANCH   6   7
ENDBRANCH   3   6
ENDBRANCH   1   2
BRANCH   1  10
ATOM     10  C   UNL     1      -0.586  -0.734   0.321  1.00  0.00     0.245 C 
BRANCH  10  11
ATOM     11  C   UNL     1      -1.940  -0.153  -0.173  1.00  0.00     0.036 C 
ATOM     12  C   UNL     1      -1.839   0.148  -1.682  1.00  0.00     0.018 C 
BRANCH  11  13
ATOM     13  C   UNL     1      -2.247   1.154   0.617  1.00  0.00     0.013 C 
BRANCH  13  14
ATOM     14  C   UNL     1      -3.583   1.834   0.295  1.00  0.00    -0.003 C 
ATOM     15  C   UNL     1      -3.754   3.117   1.096  1.00  0.00     0.004 C 
ENDBRANCH  13  14
ENDBRANCH  11  13
BRANCH  11  16
ATOM     16  C   UNL     1      -3.045  -1.210   0.070  1.00  0.00     0.245 C 
BRANCH  16  17
ATOM     17  O   UNL     1      -2.708  -2.439  -0.590  1.00  0.00    -0.449 OA
BRANCH  17  18
ATOM     18  C   UNL     1      -3.607  -3.432  -0.415  1.00  0.00     0.404 C 
ATOM     19  N   UNL     1      -3.201  -4.536  -1.078  1.00  0.00    -0.335 N 
ATOM     20  O   UNL     1      -4.637  -3.370   0.234  1.00  0.00    -0.225 OA
ATOM     21  H   UNL     1      -3.790  -5.354  -1.076  1.00  0.00     0.163 HD
ATOM     22  H   UNL     1      -2.361  -4.506  -1.634  1.00  0.00     0.163 HD
ENDBRANCH  17  18
ENDBRANCH  16  17
ENDBRANCH  11  16
ENDBRANCH  10  11
ENDBRANCH   1  10
TORSDOF 11
