REMARK SMILES N[C@@H](Cc1ccc(O)cc1)C(=O)O
REMARK SMILES IDX 2 1 1 2 3 5 4 6 5 7 10 8 6 9 9 10 7 11 8 12 11 14 12 15
REMARK SMILES IDX 13 16
REMARK H PARENT 1 3 1 4 8 13 13 17
ROOT
ATOM      1  C   UNL     1      -1.782  -0.462   0.288  1.00  0.00     0.166 C 
ENDROOT
BRANCH   1   2
ATOM      2  N   UNL     1      -1.999  -1.218  -0.978  1.00  0.00    -0.318 NA
ATOM      3  H   UNL     1      -2.488  -0.609  -1.635  1.00  0.00     0.119 HD
ATOM      4  H   UNL     1      -2.679  -1.955  -0.769  1.00  0.00     0.119 HD
ENDBRANCH   1   2
BRANCH   1   5
ATOM      5  C   UNL     1      -0.901   0.780   0.061  1.00  0.00     0.066 C 
BRANCH   5   6
ATOM      6  C   UNL     1       0.575   0.460  -0.017  1.00  0.00    -0.046 A 
ATOM      7  C   UNL     1       1.138  -0.045  -1.197  1.00  0.00     0.007 A 
ATOM      8  C   UNL     1       1.400   0.652   1.102  1.00  0.00     0.007 A 
ATOM      9  C   UNL     1       2.500  -0.348  -1.263  1.00  0.00     0.046 A 
ATOM     10  C   UNL     1       2.761   0.350   1.036  1.00  0.00     0.046 A 
ATOM     11  C   UNL     1       3.301  -0.146  -0.144  1.00  0.00     0.115 A 
BRANCH  11  12
ATOM     12  O   UNL     1       4.634  -0.430  -0.164  1.00  0.00    -0.508 OA
ATOM     13  H   UNL     1       4.860  -0.775  -1.043  1.00  0.00     0.293 HD
ENDBRANCH  11  12
ENDBRANCH   5   6
ENDBRANCH   1   5
BRANCH   1  14
ATOM     14  C   UNL     1      -3.128  -0.042   0.900  1.00  0.00     0.320 C 
ATOM     15  O   UNL     1      -3.311   0.812   1.752  1.00  0.00    -0.251 OA
BRANCH  14  16
ATOM     16  O   UNL     1      -4.178  -0.757   0.433  1.00  0.00    -0.480 OA
ATOM     17  H   UNL     1      -4.943  -0.401   0.933  1.00  0.00     0.296 HD
ENDBRANCH  14  16
ENDBRANCH   1  14
TORSDOF 6
