REMARK SMILES C=CCCCCCCCCC(=O)O
REMARK SMILES IDX 8 1 9 2 10 3 11 4 12 5 13 6 7 8 6 9 5 10 4 11 3 12 2 13 1 14
REMARK H PARENT 13 7
ROOT
ATOM      1  C   UNL     1      -2.144  -0.538   1.068  1.00  0.00     0.001 C 
ENDROOT
BRANCH   1   2
ATOM      2  C   UNL     1      -3.521   0.086   0.829  1.00  0.00     0.012 C 
BRANCH   2   3
ATOM      3  C   UNL     1      -3.997  -0.034  -0.615  1.00  0.00     0.122 C 
BRANCH   3   4
ATOM      4  C   UNL     1      -5.421   0.425  -0.745  1.00  0.00     0.303 C 
ATOM      5  O   UNL     1      -6.400  -0.290  -0.874  1.00  0.00    -0.252 OA
BRANCH   4   6
ATOM      6  O   UNL     1      -5.545   1.764  -0.699  1.00  0.00    -0.481 OA
ATOM      7  H   UNL     1      -6.509   1.917  -0.789  1.00  0.00     0.296 HD
ENDBRANCH   4   6
ENDBRANCH   3   4
ENDBRANCH   2   3
ENDBRANCH   1   2
BRANCH   1   8
ATOM      8  C   UNL     1      -1.017   0.178   0.320  1.00  0.00     0.000 C 
BRANCH   8   9
ATOM      9  C   UNL     1       0.348  -0.416   0.676  1.00  0.00     0.000 C 
BRANCH   9  10
ATOM     10  C   UNL     1       1.477   0.295  -0.073  1.00  0.00     0.000 C 
BRANCH  10  11
ATOM     11  C   UNL     1       2.841  -0.298   0.283  1.00  0.00     0.004 C 
BRANCH  11  12
ATOM     12  C   UNL     1       3.969   0.415  -0.466  1.00  0.00     0.027 C 
BRANCH  12  13
ATOM     13  C   UNL     1       5.310  -0.160  -0.109  1.00  0.00    -0.035 C 
ATOM     14  C   UNL     1       6.131  -0.751  -0.985  1.00  0.00     0.004 C 
ENDBRANCH  12  13
ENDBRANCH  11  12
ENDBRANCH  10  11
ENDBRANCH   9  10
ENDBRANCH   8   9
ENDBRANCH   1   8
TORSDOF 10
