REMARK SMILES CC(=O)O[C@H]1O[C@@H](n2ccc(=O)[nH]c2=O)[C@H](OC(C)=O)[C@@H]1OC(C)=O
REMARK SMILES IDX 5 1 6 2 7 3 16 4 21 5 4 6 2 7 3 8 1 9 22 10 23 11 25 12
REMARK SMILES IDX 24 13 8 14 9 15 14 16 10 17 13 18 15 19 11 20 12 21 17 23
REMARK SMILES IDX 18 24 20 25 19 26
REMARK H PARENT 13 22
ROOT
ATOM      1  C   UNL     1       1.678  -0.382  -0.453  1.00  0.00     0.358 C 
ATOM      2  O   UNL     1       0.604  -0.890  -1.269  1.00  0.00    -0.311 OA
ATOM      3  C   UNL     1      -0.614  -0.239  -0.865  1.00  0.00     0.272 C 
ATOM      4  C   UNL     1      -0.308   0.512   0.436  1.00  0.00     0.274 C 
ATOM      5  C   UNL     1       1.149   0.893   0.214  1.00  0.00     0.290 C 
ENDROOT
BRANCH   1   6
ATOM      6  O   UNL     1       1.989  -1.333   0.573  1.00  0.00    -0.432 OA
BRANCH   6   7
ATOM      7  C   UNL     1       2.939  -2.246   0.241  1.00  0.00     0.305 C 
ATOM      8  O   UNL     1       3.519  -2.322  -0.831  1.00  0.00    -0.253 OA
ATOM      9  C   UNL     1       3.188  -3.162   1.401  1.00  0.00     0.139 C 
ENDBRANCH   6   7
ENDBRANCH   1   6
BRANCH   5  10
ATOM     10  O   UNL     1       1.207   2.027  -0.682  1.00  0.00    -0.452 OA
BRANCH  10  11
ATOM     11  C   UNL     1       2.444   2.577  -0.817  1.00  0.00     0.303 C 
ATOM     12  O   UNL     1       3.457   2.152  -0.281  1.00  0.00    -0.253 OA
ATOM     13  C   UNL     1       2.392   3.757  -1.737  1.00  0.00     0.139 C 
ENDBRANCH  10  11
ENDBRANCH   5  10
BRANCH   3  14
ATOM     14  N   UNL     1      -1.696  -1.217  -0.723  1.00  0.00    -0.270 N 
ATOM     15  C   UNL     1      -1.434  -2.539  -0.412  1.00  0.00     0.099 C 
ATOM     16  C   UNL     1      -2.999  -0.747  -0.846  1.00  0.00     0.330 C 
ATOM     17  C   UNL     1      -2.408  -3.433  -0.238  1.00  0.00     0.090 C 
ATOM     18  N   UNL     1      -3.987  -1.680  -0.672  1.00  0.00    -0.274 N 
ATOM     19  O   UNL     1      -3.293   0.421  -1.089  1.00  0.00    -0.248 OA
ATOM     20  C   UNL     1      -3.806  -2.998  -0.374  1.00  0.00     0.253 C 
ATOM     21  O   UNL     1      -4.732  -3.783  -0.217  1.00  0.00    -0.269 OA
ATOM     22  H   UNL     1      -4.938  -1.357  -0.764  1.00  0.00     0.175 HD
ENDBRANCH   3  14
BRANCH   4  23
ATOM     23  O   UNL     1      -1.173   1.639   0.623  1.00  0.00    -0.453 OA
BRANCH  23  24
ATOM     24  C   UNL     1      -1.100   2.225   1.845  1.00  0.00     0.303 C 
ATOM     25  O   UNL     1      -0.359   1.868   2.750  1.00  0.00    -0.253 OA
ATOM     26  C   UNL     1      -2.056   3.374   1.927  1.00  0.00     0.139 C 
ENDBRANCH  23  24
ENDBRANCH   4  23
TORSDOF 7
