REMARK SMILES CCCCC(=O)N(Cc1ccc(-c2ccccc2-c2nnn[nH]2)cc1)[C@H](C(=O)O)C(C)C
REMARK SMILES IDX 7 1 5 2 6 3 4 4 3 5 2 6 1 7 8 8 9 9 10 10 25 11 11 12 24 13
REMARK SMILES IDX 12 14 13 15 18 16 14 17 17 18 15 19 16 20 19 21 20 22 23 23
REMARK SMILES IDX 21 24 22 25 26 27 30 28 31 29 32 30 27 31 28 32 29 33
REMARK H PARENT 23 26 29 34
ROOT
ATOM      1  N   UNL     1      -1.872  -0.318   0.256  1.00  0.00    -0.324 N 
ENDROOT
BRANCH   1   2
ATOM      2  C   UNL     1      -2.822   0.682   0.452  1.00  0.00     0.223 C 
ATOM      3  O   UNL     1      -3.747   0.858  -0.342  1.00  0.00    -0.275 OA
BRANCH   2   4
ATOM      4  C   UNL     1      -2.674   1.555   1.692  1.00  0.00     0.100 C 
BRANCH   4   5
ATOM      5  C   UNL     1      -3.765   2.620   1.826  1.00  0.00     0.010 C 
BRANCH   5   6
ATOM      6  C   UNL     1      -5.091   2.034   2.316  1.00  0.00    -0.003 C 
ATOM      7  C   UNL     1      -6.163   3.105   2.440  1.00  0.00     0.004 C 
ENDBRANCH   5   6
ENDBRANCH   4   5
ENDBRANCH   2   4
ENDBRANCH   1   2
BRANCH   1   8
ATOM      8  C   UNL     1      -0.766  -0.609   1.172  1.00  0.00     0.156 C 
BRANCH   8   9
ATOM      9  C   UNL     1       0.599  -0.380   0.568  1.00  0.00    -0.029 A 
ATOM     10  C   UNL     1       1.504  -1.440   0.434  1.00  0.00     0.006 A 
ATOM     11  C   UNL     1       1.000   0.899   0.162  1.00  0.00     0.006 A 
ATOM     12  C   UNL     1       2.780  -1.226  -0.097  1.00  0.00     0.009 A 
ATOM     13  C   UNL     1       2.277   1.113  -0.363  1.00  0.00     0.009 A 
ATOM     14  C   UNL     1       3.190   0.056  -0.494  1.00  0.00    -0.018 A 
BRANCH  14  15
ATOM     15  C   UNL     1       4.536   0.289  -1.049  1.00  0.00    -0.007 A 
ATOM     16  C   UNL     1       5.723   0.141  -0.292  1.00  0.00     0.028 A 
ATOM     17  C   UNL     1       4.649   0.663  -2.403  1.00  0.00     0.009 A 
ATOM     18  C   UNL     1       6.970   0.363  -0.907  1.00  0.00     0.013 A 
ATOM     19  C   UNL     1       5.892   0.879  -2.998  1.00  0.00     0.001 A 
ATOM     20  C   UNL     1       7.053   0.728  -2.251  1.00  0.00     0.001 A 
BRANCH  16  21
ATOM     21  C   UNL     1       5.698  -0.218   1.121  1.00  0.00     0.180 A 
ATOM     22  N   UNL     1       5.020   0.342   2.103  1.00  0.00    -0.109 NA
ATOM     23  N   UNL     1       6.406  -1.256   1.662  1.00  0.00    -0.239 N 
ATOM     24  N   UNL     1       5.321  -0.368   3.241  1.00  0.00    -0.024 NA
ATOM     25  N   UNL     1       6.172  -1.348   2.976  1.00  0.00    -0.048 NA
ATOM     26  H   UNL     1       7.019  -1.921   1.213  1.00  0.00     0.194 HD
ENDBRANCH  16  21
ENDBRANCH  14  15
ENDBRANCH   8   9
ENDBRANCH   1   8
BRANCH   1  27
ATOM     27  C   UNL     1      -2.017  -1.199  -0.935  1.00  0.00     0.197 C 
BRANCH  27  28
ATOM     28  C   UNL     1      -3.331  -2.040  -0.937  1.00  0.00     0.017 C 
ATOM     29  C   UNL     1      -3.688  -2.579   0.456  1.00  0.00     0.010 C 
ATOM     30  C   UNL     1      -3.233  -3.241  -1.889  1.00  0.00     0.010 C 
ENDBRANCH  27  28
BRANCH  27  31
ATOM     31  C   UNL     1      -1.803  -0.420  -2.257  1.00  0.00     0.326 C 
ATOM     32  O   UNL     1      -1.975  -0.852  -3.387  1.00  0.00    -0.250 OA
BRANCH  31  33
ATOM     33  O   UNL     1      -1.300   0.825  -2.114  1.00  0.00    -0.480 OA
ATOM     34  H   UNL     1      -1.255   1.163  -3.031  1.00  0.00     0.296 HD
ENDBRANCH  31  33
ENDBRANCH  27  31
ENDBRANCH   1  27
TORSDOF 12
