REMARK SMILES COc1cc(C(=S)N2CCOCC2)ccc1O
REMARK SMILES IDX 3 1 16 2 15 3 14 4 5 5 4 6 2 7 1 8 17 9 6 11 7 12 8 13 9 14
REMARK SMILES IDX 13 15 10 16 12 17 11 18
REMARK H PARENT 17 10
ROOT
ATOM      1  C   UNL     1       2.740   0.031  -0.981  1.00  0.00     0.161 A 
ATOM      2  C   UNL     1       3.071   1.200  -0.276  1.00  0.00     0.157 A 
ATOM      3  C   UNL     1       2.094   2.121   0.108  1.00  0.00     0.051 A 
ATOM      4  C   UNL     1       0.759   1.876  -0.208  1.00  0.00     0.015 A 
ATOM      5  C   UNL     1       0.419   0.710  -0.902  1.00  0.00     0.013 A 
ATOM      6  C   UNL     1       1.401  -0.212  -1.293  1.00  0.00     0.061 A 
ENDROOT
BRANCH   1   7
ATOM      7  O   UNL     1       3.782  -0.799  -1.301  1.00  0.00    -0.493 OA
ATOM      8  C   UNL     1       3.503  -1.898  -2.158  1.00  0.00     0.278 C 
ENDBRANCH   1   7
BRANCH   2   9
ATOM      9  O   UNL     1       4.384   1.438   0.038  1.00  0.00    -0.504 OA
ATOM     10  H   UNL     1       4.460   2.303   0.468  1.00  0.00     0.293 HD
ENDBRANCH   2   9
BRANCH   5  11
ATOM     11  C   UNL     1      -1.011   0.447  -1.216  1.00  0.00     0.109 C 
ATOM     12  S   UNL     1      -1.538   0.640  -2.807  1.00  0.00    -0.060 S 
ATOM     13  N   UNL     1      -1.831   0.065  -0.143  1.00  0.00    -0.358 N 
ATOM     14  C   UNL     1      -1.304  -0.309   1.184  1.00  0.00     0.146 C 
ATOM     15  C   UNL     1      -3.295  -0.080  -0.270  1.00  0.00     0.146 C 
ATOM     16  C   UNL     1      -2.213  -1.331   1.876  1.00  0.00     0.181 C 
ATOM     17  C   UNL     1      -3.991   0.076   1.086  1.00  0.00     0.181 C 
ATOM     18  O   UNL     1      -3.552  -0.863   2.076  1.00  0.00    -0.378 OA
ENDBRANCH   5  11
TORSDOF 3
