REMARK SMILES CC(C(=O)O)c1ccc(C2CCCCC2)c2ccccc12
REMARK SMILES IDX 3 1 4 2 2 3 1 4 6 5 7 6 21 7 8 8 16 9 20 10 9 11 17 12 19 13
REMARK SMILES IDX 18 14 10 15 11 16 15 17 12 18 14 19 13 20 5 21
REMARK H PARENT 5 22
ROOT
ATOM      1  C   UNL     1      -4.593   1.303   0.837  1.00  0.00     0.310 C 
ATOM      2  O   UNL     1      -5.054   1.447   1.958  1.00  0.00    -0.252 OA
ENDROOT
BRANCH   1   3
ATOM      3  C   UNL     1      -3.939   0.054   0.265  1.00  0.00     0.126 C 
ATOM      4  C   UNL     1      -4.442  -1.193   0.995  1.00  0.00     0.025 C 
BRANCH   3   5
ATOM      5  C   UNL     1      -2.410   0.115   0.292  1.00  0.00    -0.026 A 
ATOM      6  C   UNL     1      -1.795   0.587   1.462  1.00  0.00     0.005 A 
ATOM      7  C   UNL     1      -1.595  -0.321  -0.795  1.00  0.00    -0.014 A 
ATOM      8  C   UNL     1      -0.415   0.683   1.557  1.00  0.00     0.005 A 
ATOM      9  C   UNL     1      -0.171  -0.221  -0.697  1.00  0.00    -0.015 A 
ATOM     10  C   UNL     1      -2.143  -0.866  -1.985  1.00  0.00     0.009 A 
ATOM     11  C   UNL     1       0.420   0.299   0.495  1.00  0.00    -0.037 A 
ATOM     12  C   UNL     1       0.595  -0.662  -1.806  1.00  0.00     0.009 A 
ATOM     13  C   UNL     1      -1.353  -1.287  -3.053  1.00  0.00     0.001 A 
ATOM     14  C   UNL     1       0.020  -1.182  -2.965  1.00  0.00     0.001 A 
BRANCH  11  15
ATOM     15  C   UNL     1       1.921   0.489   0.726  1.00  0.00     0.020 C 
ATOM     16  C   UNL     1       2.544   1.563  -0.181  1.00  0.00     0.008 C 
ATOM     17  C   UNL     1       2.719  -0.832   0.753  1.00  0.00     0.008 C 
ATOM     18  C   UNL     1       3.998   1.858   0.200  1.00  0.00     0.001 C 
ATOM     19  C   UNL     1       4.153  -0.675   0.246  1.00  0.00     0.001 C 
ATOM     20  C   UNL     1       4.767   0.638   0.711  1.00  0.00     0.000 C 
ENDBRANCH  11  15
ENDBRANCH   3   5
ENDBRANCH   1   3
BRANCH   1  21
ATOM     21  O   UNL     1      -4.623   2.326  -0.043  1.00  0.00    -0.481 OA
ATOM     22  H   UNL     1      -5.030   3.063   0.459  1.00  0.00     0.296 HD
ENDBRANCH   1  21
TORSDOF 4
