REMARK SMILES CC[C@]1(O)C[C@@H]2CN(CCc3c([nH]c4ccccc34)[C@@](C(=O)OC)(c3cc4c(cc3OC)N(C)[C@H]3[C@@](O)(C(N)=O)[C@H](O)[C@]5(CC)C=CCN6CC[C@]43[C@@H]65)C2)C1
REMARK SMILES IDX 11 1 12 2 13 3 14 4 15 5 16 6 17 7 18 8 19 9 10 11 9 12 8 13
REMARK SMILES IDX 3 14 5 15 55 16 6 17 7 18 2 20 1 21 4 22 20 24 54 25 21 27
REMARK SMILES IDX 22 28 23 29 24 30 25 31 26 32 30 33 27 34 29 35 28 36 52 37
REMARK SMILES IDX 33 38 35 39 51 40 53 41 36 42 50 43 43 44 49 45 41 46 46 47
REMARK SMILES IDX 48 48 47 49 34 50 31 51 32 52 37 53 38 55 39 56 40 57 44 60
REMARK SMILES IDX 45 61 42 62
REMARK H PARENT 13 10 4 23 37 54 39 58 39 59 42 63
REMARK Flexibility Score:   89.900
ROOT
ATOM      1  C   UNL     1       2.569  -1.785   0.497  1.00  0.00    -0.017 A 
ATOM      2  C   UNL     1       1.903  -0.572   0.680  1.00  0.00     0.041 A 
ATOM      3  N   UNL     1       1.353  -0.635   1.951  1.00  0.00    -0.357 N 
ATOM      4  C   UNL     1       1.453  -1.893   2.483  1.00  0.00     0.046 A 
ATOM      5  C   UNL     1       0.948  -2.401   3.685  1.00  0.00     0.026 A 
ATOM      6  C   UNL     1       1.235  -3.732   3.997  1.00  0.00     0.002 A 
ATOM      7  C   UNL     1       2.008  -4.512   3.142  1.00  0.00     0.001 A 
ATOM      8  C   UNL     1       2.503  -3.981   1.944  1.00  0.00     0.010 A 
ATOM      9  C   UNL     1       2.208  -2.645   1.594  1.00  0.00     0.003 A 
ATOM     10  H   UNL     1       0.861   0.125   2.398  1.00  0.00     0.166 HD
ENDROOT
BRANCH   1  11
ATOM     11  C   UNL     1       3.570  -2.151  -0.558  1.00  0.00     0.053 C 
BRANCH  11  12
ATOM     12  C   UNL     1       5.018  -1.956  -0.067  1.00  0.00     0.089 C 
BRANCH  12  13
ATOM     13  N   UNL     1       5.503  -0.586   0.074  1.00  0.00    -0.300 NA
ATOM     14  C   UNL     1       6.324   1.552  -0.963  1.00  0.00     0.077 C 
ATOM     15  C   UNL     1       5.106   2.329  -0.425  1.00  0.00     0.041 C 
ATOM     16  C   UNL     1       5.891   0.078  -1.162  1.00  0.00     0.119 C 
ATOM     17  C   UNL     1       4.332   1.611   0.708  1.00  0.00     0.008 CG0
ATOM     18  C   UNL     1       4.910   0.240   1.113  1.00  0.00     0.088 C 
ATOM     19  G   UNL     1       2.778   1.777   0.587  1.00  0.00     0.000 G0
BRANCH  14  20
ATOM     20  C   UNL     1       7.567   1.766  -0.060  1.00  0.00     0.033 C 
ATOM     21  C   UNL     1       8.737   0.839  -0.356  1.00  0.00     0.007 C 
ENDBRANCH  14  20
BRANCH  14  22
ATOM     22  O   UNL     1       6.656   2.111  -2.246  1.00  0.00    -0.389 OA
ATOM     23  H   UNL     1       7.313   1.530  -2.663  1.00  0.00     0.211 HD
ENDBRANCH  14  22
ENDBRANCH  12  13
ENDBRANCH  11  12
ENDBRANCH   1  11
BRANCH   2  24
ATOM     24  C   UNL     1       1.809   0.750  -0.136  1.00  0.00     0.137 C 
BRANCH  24  25
ATOM     25  C   UNL     1       2.778   1.777   0.587  1.00  0.00     0.035 CG0
ATOM     26  G   UNL     1       4.332   1.611   0.708  1.00  0.00     0.000 G0
ENDBRANCH  24  25
BRANCH  24  27
ATOM     27  C   UNL     1       2.130   0.498  -1.636  1.00  0.00     0.322 C 
ATOM     28  O   UNL     1       2.980   1.072  -2.300  1.00  0.00    -0.251 OA
BRANCH  27  29
ATOM     29  O   UNL     1       1.267  -0.425  -2.167  1.00  0.00    -0.468 OA
ATOM     30  C   UNL     1       1.389  -0.628  -3.574  1.00  0.00     0.282 C 
ENDBRANCH  27  29
ENDBRANCH  24  27
BRANCH  24  31
ATOM     31  C   UNL     1       0.325   1.331  -0.163  1.00  0.00     0.018 A 
ATOM     32  C   UNL     1      -0.771   0.554   0.259  1.00  0.00     0.015 A 
ATOM     33  C   UNL     1       0.019   2.588  -0.760  1.00  0.00     0.125 A 
ATOM     34  C   UNL     1      -2.070   1.058   0.232  1.00  0.00    -0.014 A 
ATOM     35  C   UNL     1      -1.297   3.082  -0.795  1.00  0.00     0.073 A 
ATOM     36  C   UNL     1      -2.335   2.313  -0.291  1.00  0.00     0.044 A 
ATOM     37  C   UNL     1      -3.337   0.414   0.775  1.00  0.00     0.039 C 
ATOM     38  N   UNL     1      -3.706   2.611  -0.339  1.00  0.00    -0.367 N 
ATOM     39  C   UNL     1      -4.387   1.525   0.444  1.00  0.00     0.138 C 
ATOM     40  C   UNL     1      -3.180   0.240   2.301  1.00  0.00     0.031 C 
ATOM     41  C   UNL     1      -3.552  -1.029   0.236  1.00  0.00     0.082 C 
ATOM     42  C   UNL     1      -5.679   1.021  -0.236  1.00  0.00     0.191 C 
ATOM     43  C   UNL     1      -2.962  -1.247   2.531  1.00  0.00     0.086 C 
ATOM     44  C   UNL     1      -5.043  -1.512  -0.015  1.00  0.00     0.034 C 
ATOM     45  N   UNL     1      -2.760  -1.829   1.205  1.00  0.00    -0.295 NA
ATOM     46  C   UNL     1      -6.067  -0.379   0.286  1.00  0.00     0.169 C 
ATOM     47  C   UNL     1      -5.412  -2.760   0.800  1.00  0.00    -0.019 C 
ATOM     48  C   UNL     1      -3.018  -3.264   1.181  1.00  0.00     0.112 C 
ATOM     49  C   UNL     1      -4.474  -3.581   1.297  1.00  0.00    -0.015 C 
ATOM     50  C   UNL     1      -4.088   3.990  -0.053  1.00  0.00     0.144 C 
BRANCH  33  51
ATOM     51  O   UNL     1       1.072   3.265  -1.321  1.00  0.00    -0.496 OA
ATOM     52  C   UNL     1       0.791   4.323  -2.223  1.00  0.00     0.278 C 
ENDBRANCH  33  51
BRANCH  42  53
ATOM     53  O   UNL     1      -6.767   1.911   0.212  1.00  0.00    -0.376 OA
ATOM     54  H   UNL     1      -7.457   1.853  -0.484  1.00  0.00     0.212 HD
ENDBRANCH  42  53
BRANCH  42  55
ATOM     55  C   UNL     1      -5.777   1.103  -1.774  1.00  0.00     0.254 C 
ATOM     56  N   UNL     1      -4.638   1.195  -2.512  1.00  0.00    -0.367 N 
ATOM     57  O   UNL     1      -6.875   1.075  -2.331  1.00  0.00    -0.272 OA
ATOM     58  H   UNL     1      -3.893   1.747  -2.090  1.00  0.00     0.159 HD
ATOM     59  H   UNL     1      -4.788   1.378  -3.496  1.00  0.00     0.159 HD
ENDBRANCH  42  55
BRANCH  44  60
ATOM     60  C   UNL     1      -5.107  -2.014  -1.509  1.00  0.00     0.012 C 
ATOM     61  C   UNL     1      -6.462  -2.478  -2.031  1.00  0.00     0.005 C 
ENDBRANCH  44  60
BRANCH  46  62
ATOM     62  O   UNL     1      -6.281  -0.262   1.715  1.00  0.00    -0.388 OA
ATOM     63  H   UNL     1      -6.891   0.498   1.821  1.00  0.00     0.211 HD
ENDBRANCH  46  62
ENDBRANCH  24  31
ENDBRANCH   2  24
TORSDOF 10
