REMARK SMILES C=COC=C
REMARK SMILES IDX 3 1 2 2 1 3 4 4 5 5
REMARK H PARENT
ROOT
ATOM      1  O   UNL     1      -0.027   0.361   0.191  1.00  0.00    -0.474 OA
ENDROOT
BRANCH   1   2
ATOM      2  C   UNL     1      -1.159  -0.359   0.472  1.00  0.00     0.187 C 
ATOM      3  C   UNL     1      -2.379   0.140   0.261  1.00  0.00     0.050 C 
ENDBRANCH   1   2
BRANCH   1   4
ATOM      4  C   UNL     1       1.201  -0.201   0.428  1.00  0.00     0.187 C 
ATOM      5  C   UNL     1       2.335   0.455   0.173  1.00  0.00     0.050 C 
ENDBRANCH   1   4
TORSDOF 2
