REMARK SMILES CCCCCCCCCCCCCCCC(=O)OC/C=C(C)/C=C/C=C(C)/C=C/C1=C(C)CCCC1(C)C
REMARK SMILES IDX 12 1 11 2 10 3 9 4 8 5 7 6 6 7 5 8 4 9 3 10 2 11 1 12 13 13
REMARK SMILES IDX 14 14 15 15 16 16 17 17 18 18 19 19 20 20 21 21 22 22 23 23
REMARK SMILES IDX 24 24 25 25 26 26 27 27 28 28 29 29 30 30 31 31 36 32 33 33
REMARK SMILES IDX 35 34 34 35 32 36 37 37 38 38
REMARK H PARENT
ROOT
ATOM      1  C   UNL     1       6.331  -4.146   0.151  1.00  0.00     0.000 C 
ENDROOT
BRANCH   1   2
ATOM      2  C   UNL     1       7.493  -3.361  -0.468  1.00  0.00     0.000 C 
BRANCH   2   3
ATOM      3  C   UNL     1       8.033  -2.228   0.414  1.00  0.00     0.000 C 
BRANCH   3   4
ATOM      4  C   UNL     1       7.507  -0.826   0.081  1.00  0.00     0.000 C 
BRANCH   4   5
ATOM      5  C   UNL     1       8.014  -0.301  -1.266  1.00  0.00     0.000 C 
BRANCH   5   6
ATOM      6  C   UNL     1       7.515   1.110  -1.600  1.00  0.00    -0.000 C 
BRANCH   6   7
ATOM      7  C   UNL     1       7.930   2.216  -0.625  1.00  0.00    -0.000 C 
BRANCH   7   8
ATOM      8  C   UNL     1       9.447   2.358  -0.472  1.00  0.00    -0.000 C 
BRANCH   8   9
ATOM      9  C   UNL     1       9.805   3.565   0.399  1.00  0.00    -0.000 C 
BRANCH   9  10
ATOM     10  C   UNL     1      11.312   3.806   0.522  1.00  0.00    -0.000 C 
BRANCH  10  11
ATOM     11  C   UNL     1      12.120   2.666   1.148  1.00  0.00    -0.003 C 
ATOM     12  C   UNL     1      11.678   2.309   2.559  1.00  0.00     0.004 C 
ENDBRANCH  10  11
ENDBRANCH   9  10
ENDBRANCH   8   9
ENDBRANCH   7   8
ENDBRANCH   6   7
ENDBRANCH   5   6
ENDBRANCH   4   5
ENDBRANCH   3   4
ENDBRANCH   2   3
ENDBRANCH   1   2
BRANCH   1  13
ATOM     13  C   UNL     1       5.018  -3.383   0.338  1.00  0.00     0.001 C 
BRANCH  13  14
ATOM     14  C   UNL     1       4.417  -2.875  -0.977  1.00  0.00     0.012 C 
BRANCH  14  15
ATOM     15  C   UNL     1       3.011  -2.306  -0.782  1.00  0.00     0.123 C 
BRANCH  15  16
ATOM     16  C   UNL     1       1.956  -3.381  -0.641  1.00  0.00     0.306 C 
ATOM     17  O   UNL     1       2.130  -4.576  -0.829  1.00  0.00    -0.252 OA
BRANCH  16  18
ATOM     18  O   UNL     1       0.766  -2.808  -0.303  1.00  0.00    -0.461 OA
BRANCH  18  19
ATOM     19  C   UNL     1      -0.317  -3.737  -0.230  1.00  0.00     0.261 C 
BRANCH  19  20
ATOM     20  C   UNL     1      -1.556  -2.956   0.089  1.00  0.00     0.017 C 
ATOM     21  C   UNL     1      -2.548  -2.582  -0.747  1.00  0.00    -0.052 C 
ATOM     22  C   UNL     1      -2.546  -2.868  -2.229  1.00  0.00     0.044 C 
BRANCH  21  23
ATOM     23  C   UNL     1      -3.690  -1.853  -0.194  1.00  0.00     0.003 C 
ATOM     24  C   UNL     1      -4.705  -1.310  -0.887  1.00  0.00     0.001 C 
BRANCH  24  25
ATOM     25  C   UNL     1      -5.807  -0.621  -0.243  1.00  0.00     0.003 C 
ATOM     26  C   UNL     1      -6.812   0.059  -0.835  1.00  0.00    -0.051 C 
ATOM     27  C   UNL     1      -6.961   0.252  -2.324  1.00  0.00     0.044 C 
BRANCH  26  28
ATOM     28  C   UNL     1      -7.846   0.646   0.022  1.00  0.00     0.004 C 
ATOM     29  C   UNL     1      -8.873   1.420  -0.370  1.00  0.00     0.004 C 
BRANCH  29  30
ATOM     30  C   UNL     1      -9.898   1.920   0.543  1.00  0.00    -0.043 C 
ATOM     31  C   UNL     1      -9.615   2.789   1.545  1.00  0.00    -0.070 C 
ATOM     32  C   UNL     1     -11.324   1.387   0.282  1.00  0.00    -0.010 C 
ATOM     33  C   UNL     1     -10.671   3.298   2.505  1.00  0.00     0.031 C 
ATOM     34  C   UNL     1     -12.234   1.609   1.520  1.00  0.00     0.011 C 
ATOM     35  C   UNL     1     -12.107   3.015   2.081  1.00  0.00     0.005 C 
ATOM     36  C   UNL     1      -8.246   3.364   1.834  1.00  0.00     0.040 C 
ATOM     37  C   UNL     1     -11.342  -0.134  -0.007  1.00  0.00     0.016 C 
ATOM     38  C   UNL     1     -11.928   2.117  -0.940  1.00  0.00     0.016 C 
ENDBRANCH  29  30
ENDBRANCH  26  28
ENDBRANCH  24  25
ENDBRANCH  21  23
ENDBRANCH  19  20
ENDBRANCH  18  19
ENDBRANCH  16  18
ENDBRANCH  15  16
ENDBRANCH  14  15
ENDBRANCH  13  14
ENDBRANCH   1  13
TORSDOF 21
