REMARK SMILES C[C@@H](c1ncncc1F)[C@](O)(Cn1cncn1)c1ccc(F)cc1F
REMARK SMILES IDX 1 1 2 2 3 3 4 4 8 5 5 6 7 7 6 8 9 9 10 10 11 11 12 13 13 14
REMARK SMILES IDX 14 15 17 16 15 17 16 18 18 19 24 20 19 21 23 22 20 23 21 24
REMARK SMILES IDX 25 25 22 26
REMARK H PARENT 11 12
ROOT
ATOM      1  C   UNL     1       2.066   0.095  -2.267  1.00  0.00     0.018 C 
ATOM      2  C   UNL     1       0.947  -0.536  -1.415  1.00  0.00     0.077 C 
ENDROOT
BRANCH   2   3
ATOM      3  C   UNL     1       1.471  -1.198  -0.154  1.00  0.00     0.086 A 
ATOM      4  N   UNL     1       0.912  -2.400   0.151  1.00  0.00    -0.238 NA
ATOM      5  C   UNL     1       2.475  -0.667   0.634  1.00  0.00     0.163 A 
ATOM      6  C   UNL     1       1.353  -3.022   1.260  1.00  0.00     0.222 A 
ATOM      7  C   UNL     1       2.850  -1.388   1.746  1.00  0.00     0.154 A 
ATOM      8  N   UNL     1       2.306  -2.573   2.088  1.00  0.00    -0.242 NA
ATOM      9  F   UNL     1       3.094   0.479   0.336  1.00  0.00    -0.203 F 
ENDBRANCH   2   3
BRANCH   2  10
ATOM     10  C   UNL     1      -0.341   0.373  -1.294  1.00  0.00     0.120 C 
BRANCH  10  11
ATOM     11  O   UNL     1      -0.782   0.473  -2.701  1.00  0.00    -0.382 OA
ATOM     12  H   UNL     1      -1.626   0.961  -2.716  1.00  0.00     0.211 HD
ENDBRANCH  10  11
BRANCH  10  13
ATOM     13  C   UNL     1      -0.117   1.883  -0.951  1.00  0.00     0.187 C 
BRANCH  13  14
ATOM     14  N   UNL     1       0.170   2.329   0.383  1.00  0.00    -0.250 N 
ATOM     15  C   UNL     1       1.367   2.740   0.885  1.00  0.00     0.219 A 
ATOM     16  N   UNL     1      -0.835   2.707   1.201  1.00  0.00    -0.160 NA
ATOM     17  N   UNL     1       1.194   3.253   2.081  1.00  0.00    -0.224 NA
ATOM     18  C   UNL     1      -0.160   3.207   2.239  1.00  0.00     0.246 A 
ENDBRANCH  13  14
ENDBRANCH  10  13
BRANCH  10  19
ATOM     19  C   UNL     1      -1.492  -0.313  -0.536  1.00  0.00     0.022 A 
ATOM     20  C   UNL     1      -1.487  -0.431   0.865  1.00  0.00     0.132 A 
ATOM     21  C   UNL     1      -2.577  -0.915  -1.211  1.00  0.00     0.013 A 
ATOM     22  C   UNL     1      -2.518  -1.045   1.571  1.00  0.00     0.078 A 
ATOM     23  C   UNL     1      -3.618  -1.536  -0.512  1.00  0.00     0.040 A 
ATOM     24  C   UNL     1      -3.582  -1.586   0.874  1.00  0.00     0.126 A 
ATOM     25  F   UNL     1      -0.436  -0.001   1.575  1.00  0.00    -0.206 F 
ATOM     26  F   UNL     1      -4.577  -2.186   1.540  1.00  0.00    -0.207 F 
ENDBRANCH  10  19
ENDBRANCH   2  10
TORSDOF 6
