REMARK SMILES CC[C@@H]1[C@@H]2CN(C(=O)[C@H](C(C)(C)C)NC(=O)O[C@@H]3C[C@H]3CCCCC(F)(F)c3nc4ccc(OC)cc4nc3O2)[C@@H]1C(=O)N[C@]1(C(=O)NS(=O)(=O)C2(C)CC2)C[C@H]1C(F)F
REMARK SMILES IDX 3 1 4 2 5 3 6 4 41 5 2 6 1 7 40 8 39 9 38 10 28 11 37 12
REMARK SMILES IDX 29 13 36 14 30 15 33 16 31 17 32 18 25 19 26 20 27 21 24 22
REMARK SMILES IDX 23 23 22 24 21 25 34 27 35 28 42 29 43 30 44 31 45 33 56 34
REMARK SMILES IDX 57 35 46 36 47 37 48 38 49 40 50 41 51 42 52 43 54 44 55 45
REMARK SMILES IDX 53 46 58 47 59 48 60 49 7 50 8 51 9 52 14 53 15 54 16 55
REMARK SMILES IDX 17 57 18 58 19 59 20 60 10 62 11 63 12 64 13 65
REMARK H PARENT 44 32 48 39 14 56
REMARK Flexibility Score:  109.900
ROOT
ATOM      1  C   UNL     1       0.479   0.571   1.374  1.00  0.00     0.064 C 
ATOM      2  C   UNL     1      -1.006   0.509   1.785  1.00  0.00     0.200 C 
ATOM      3  C   UNL     1      -1.115  -0.887   2.395  1.00  0.00     0.166 C 
ATOM      4  N   UNL     1      -0.251  -1.710   1.567  1.00  0.00    -0.325 N 
ATOM      5  C   UNL     1       0.773  -0.891   0.925  1.00  0.00     0.181 C 
ENDROOT
BRANCH   1   6
ATOM      6  C   UNL     1       1.349   1.105   2.532  1.00  0.00     0.007 C 
ATOM      7  C   UNL     1       1.096   2.574   2.846  1.00  0.00     0.004 C 
ENDBRANCH   1   6
BRANCH   2   8
ATOM      8  O   UNL     1      -1.849   0.551   0.615  1.00  0.00    -0.471 OA
BRANCH   8   9
ATOM      9  C   UNL     1      -2.372   1.783   0.302  1.00  0.00     0.242 A 
ATOM     10  N   UNL     1      -1.923   2.854   1.002  1.00  0.00    -0.210 NA
ATOM     11  C   UNL     1      -3.342   1.900  -0.688  1.00  0.00     0.172 A 
ATOM     12  C   UNL     1      -2.455   4.056   0.700  1.00  0.00     0.096 A 
ATOM     13  N   UNL     1      -3.896   3.121  -0.977  1.00  0.00    -0.239 NA
ATOM     14  C   UNL     1      -2.018   5.194   1.360  1.00  0.00     0.077 A 
ATOM     15  C   UNL     1      -3.455   4.184  -0.282  1.00  0.00     0.090 A 
ATOM     16  C   UNL     1      -2.557   6.455   1.088  1.00  0.00     0.121 A 
ATOM     17  C   UNL     1      -3.994   5.436  -0.545  1.00  0.00     0.034 A 
ATOM     18  C   UNL     1      -3.554   6.575   0.122  1.00  0.00     0.049 A 
BRANCH  11  19
ATOM     19  C   UNL     1      -3.814   0.736  -1.545  1.00  0.00     0.295 C 
ATOM     20  F   UNL     1      -3.007  -0.360  -1.500  1.00  0.00    -0.199 F 
ATOM     21  F   UNL     1      -3.810   1.105  -2.873  1.00  0.00    -0.199 F 
BRANCH  19  22
ATOM     22  C   UNL     1      -5.250   0.319  -1.181  1.00  0.00     0.084 C 
BRANCH  22  23
ATOM     23  C   UNL     1      -5.925  -0.584  -2.226  1.00  0.00     0.007 C 
BRANCH  23  24
ATOM     24  C   UNL     1      -5.491  -2.052  -2.198  1.00  0.00     0.001 C 
BRANCH  24  25
ATOM     25  C   UNL     1      -6.385  -2.921  -1.306  1.00  0.00     0.007 CG0
ATOM     26  G   UNL     1      -5.739  -4.243  -1.032  1.00  0.00     0.000 G0
ENDBRANCH  24  25
ENDBRANCH  23  24
ENDBRANCH  22  23
ENDBRANCH  19  22
ENDBRANCH  11  19
BRANCH  16  27
ATOM     27  O   UNL     1      -2.029   7.470   1.827  1.00  0.00    -0.497 OA
ATOM     28  C   UNL     1      -2.537   8.778   1.587  1.00  0.00     0.278 C 
ENDBRANCH  16  27
ENDBRANCH   8   9
ENDBRANCH   2   8
BRANCH   5  29
ATOM     29  C   UNL     1       2.186  -1.392   1.303  1.00  0.00     0.244 C 
ATOM     30  O   UNL     1       2.372  -2.326   2.077  1.00  0.00    -0.273 OA
ATOM     31  N   UNL     1       3.209  -0.724   0.633  1.00  0.00    -0.339 N 
ATOM     32  H   UNL     1       2.949   0.019   0.003  1.00  0.00     0.164 HD
BRANCH  31  33
ATOM     33  C   UNL     1       4.649  -0.945   0.805  1.00  0.00     0.129 C 
ATOM     34  C   UNL     1       5.203  -2.331   1.100  1.00  0.00     0.051 C 
ATOM     35  C   UNL     1       5.170  -1.295   2.194  1.00  0.00     0.094 C 
BRANCH  33  36
ATOM     36  C   UNL     1       5.507  -0.027  -0.065  1.00  0.00     0.259 C 
ATOM     37  O   UNL     1       6.250  -0.466  -0.928  1.00  0.00    -0.271 OA
ATOM     38  N   UNL     1       5.271   1.335   0.176  1.00  0.00    -0.251 N 
ATOM     39  H   UNL     1       5.039   1.584   1.133  1.00  0.00     0.183 HD
BRANCH  38  40
ATOM     40  S   UNL     1       6.184   2.560  -0.504  1.00  0.00     0.240 S 
ATOM     41  O   UNL     1       5.309   3.716  -0.494  1.00  0.00    -0.206 OA
ATOM     42  O   UNL     1       7.429   2.593   0.230  1.00  0.00    -0.206 OA
BRANCH  40  43
ATOM     43  C   UNL     1       6.544   2.243  -2.259  1.00  0.00     0.089 C 
ATOM     44  C   UNL     1       7.618   3.143  -2.820  1.00  0.00     0.026 C 
ATOM     45  C   UNL     1       7.902   1.682  -2.586  1.00  0.00     0.026 C 
ATOM     46  C   UNL     1       5.340   1.895  -3.062  1.00  0.00     0.030 C 
ENDBRANCH  40  43
ENDBRANCH  38  40
ENDBRANCH  33  36
BRANCH  35  47
ATOM     47  C   UNL     1       6.399  -0.661   2.728  1.00  0.00     0.348 C 
ATOM     48  F   UNL     1       6.206   0.678   2.710  1.00  0.00    -0.210 F 
ATOM     49  F   UNL     1       7.455  -0.910   1.916  1.00  0.00    -0.210 F 
ENDBRANCH  35  47
ENDBRANCH  31  33
ENDBRANCH   5  29
BRANCH   4  50
ATOM     50  C   UNL     1      -0.543  -3.047   1.510  1.00  0.00     0.246 C 
ATOM     51  O   UNL     1      -1.056  -3.545   2.529  1.00  0.00    -0.272 OA
BRANCH  50  52
ATOM     52  C   UNL     1      -0.347  -4.002   0.272  1.00  0.00     0.180 C 
BRANCH  52  53
ATOM     53  N   UNL     1      -1.606  -4.793   0.292  1.00  0.00    -0.309 N 
ATOM     54  C   UNL     1      -2.831  -4.174   0.211  1.00  0.00     0.408 C 
ATOM     55  O   UNL     1      -2.986  -2.972   0.040  1.00  0.00    -0.225 OA
ATOM     56  H   UNL     1      -1.618  -5.724   0.685  1.00  0.00     0.167 HD
BRANCH  54  57
ATOM     57  O   UNL     1      -3.853  -5.067   0.371  1.00  0.00    -0.446 OA
BRANCH  57  58
ATOM     58  C   UNL     1      -5.163  -4.458   0.348  1.00  0.00     0.182 C 
ATOM     59  C   UNL     1      -6.331  -5.277  -0.115  1.00  0.00     0.053 C 
ATOM     60  C   UNL     1      -5.739  -4.243  -1.032  1.00  0.00     0.034 CG0
ATOM     61  G   UNL     1      -6.385  -2.921  -1.306  1.00  0.00     0.000 G0
ENDBRANCH  57  58
ENDBRANCH  54  57
ENDBRANCH  52  53
BRANCH  52  62
ATOM     62  C   UNL     1       0.046  -3.668  -1.210  1.00  0.00    -0.009 C 
ATOM     63  C   UNL     1       1.561  -3.384  -1.348  1.00  0.00     0.013 C 
ATOM     64  C   UNL     1      -0.793  -2.543  -1.846  1.00  0.00     0.013 C 
ATOM     65  C   UNL     1      -0.170  -4.937  -2.093  1.00  0.00     0.013 C 
ENDBRANCH  52  62
ENDBRANCH  50  52
ENDBRANCH   4  50
TORSDOF 9
