REMARK SMILES CCC(C(=O)O)c1ccc(-c2ccccc2)cc1
REMARK SMILES IDX 4 1 5 2 3 3 2 4 1 5 7 6 8 7 18 8 9 9 17 10 10 11 11 12 12 13
REMARK SMILES IDX 16 14 13 15 15 16 14 17 6 18
REMARK H PARENT 6 19
ROOT
ATOM      1  C   UNL     1      -3.558  -1.654   0.397  1.00  0.00     0.310 C 
ATOM      2  O   UNL     1      -3.896  -1.745   1.567  1.00  0.00    -0.252 OA
ENDROOT
BRANCH   1   3
ATOM      3  C   UNL     1      -3.039  -0.413  -0.312  1.00  0.00     0.129 C 
BRANCH   3   4
ATOM      4  C   UNL     1      -3.780   0.832   0.215  1.00  0.00     0.017 C 
ATOM      5  C   UNL     1      -3.507   2.082  -0.611  1.00  0.00     0.005 C 
ENDBRANCH   3   4
BRANCH   3   6
ATOM      6  C   UNL     1      -1.528  -0.311  -0.196  1.00  0.00    -0.034 A 
ATOM      7  C   UNL     1      -0.897  -0.160   1.046  1.00  0.00     0.005 A 
ATOM      8  C   UNL     1      -0.732  -0.373  -1.347  1.00  0.00     0.005 A 
ATOM      9  C   UNL     1       0.496  -0.067   1.132  1.00  0.00     0.009 A 
ATOM     10  C   UNL     1       0.661  -0.279  -1.256  1.00  0.00     0.009 A 
ATOM     11  C   UNL     1       1.300  -0.123  -0.017  1.00  0.00    -0.018 A 
BRANCH  11  12
ATOM     12  C   UNL     1       2.766  -0.025   0.076  1.00  0.00    -0.018 A 
ATOM     13  C   UNL     1       3.477   0.924  -0.678  1.00  0.00     0.009 A 
ATOM     14  C   UNL     1       3.497  -0.878   0.920  1.00  0.00     0.009 A 
ATOM     15  C   UNL     1       4.869   1.018  -0.590  1.00  0.00     0.001 A 
ATOM     16  C   UNL     1       4.889  -0.786   1.008  1.00  0.00     0.001 A 
ATOM     17  C   UNL     1       5.574   0.163   0.253  1.00  0.00     0.000 A 
ENDBRANCH  11  12
ENDBRANCH   3   6
ENDBRANCH   1   3
BRANCH   1  18
ATOM     18  O   UNL     1      -3.608  -2.735  -0.409  1.00  0.00    -0.481 OA
ATOM     19  H   UNL     1      -3.912  -3.456   0.181  1.00  0.00     0.296 HD
ENDBRANCH   1  18
TORSDOF 5
