REMARK SMILES CC(=O)N[C@H]1[C@H]([C@H](O)[C@H](O)CO)OC(C(=O)O)=C[C@@H]1NC(=N)N
REMARK SMILES IDX 7 1 6 2 5 3 19 4 18 5 13 6 14 7 4 8 2 9 3 10 1 11 20 13
REMARK SMILES IDX 21 14 23 15 22 16 15 21 16 22 17 23 8 25 9 27 10 28 11 30
REMARK SMILES IDX 12 31
REMARK H PARENT 4 12 20 17 23 18 23 19 22 20 17 24 8 26 10 29 12 32
ROOT
ATOM      1  C   UNL     1      -0.918  -0.723   1.014  1.00  0.00     0.188 C 
ENDROOT
BRANCH   1   2
ATOM      2  C   UNL     1      -0.780   0.153  -0.262  1.00  0.00     0.229 C 
ATOM      3  C   UNL     1       0.404   1.155  -0.228  1.00  0.00     0.152 C 
ATOM      4  C   UNL     1       1.755   0.470  -0.528  1.00  0.00     0.135 C 
ATOM      5  C   UNL     1       1.612  -0.601  -1.558  1.00  0.00     0.054 C 
ATOM      6  O   UNL     1      -0.786  -0.681  -1.439  1.00  0.00    -0.478 OA
ATOM      7  C   UNL     1       0.425  -1.078  -1.963  1.00  0.00     0.202 C 
BRANCH   3   8
ATOM      8  N   UNL     1       0.163   2.248  -1.200  1.00  0.00    -0.347 N 
ATOM      9  C   UNL     1      -0.672   3.297  -0.886  1.00  0.00     0.217 C 
ATOM     10  O   UNL     1      -1.189   3.438   0.216  1.00  0.00    -0.275 OA
ATOM     11  C   UNL     1      -0.918   4.253  -2.021  1.00  0.00     0.114 C 
ATOM     12  H   UNL     1       0.305   2.044  -2.182  1.00  0.00     0.163 HD
ENDBRANCH   3   8
BRANCH   4  13
ATOM     13  N   UNL     1       2.339  -0.141   0.648  1.00  0.00    -0.348 N 
ATOM     14  C   UNL     1       2.959   0.528   1.642  1.00  0.00     0.186 C 
ATOM     15  N   UNL     1       2.972  -0.161   2.798  1.00  0.00    -0.370 N 
ATOM     16  N   UNL     1       3.529   1.673   1.596  1.00  0.00    -0.270 NA
ATOM     17  H   UNL     1       1.823  -0.961   0.971  1.00  0.00     0.164 HD
ATOM     18  H   UNL     1       2.082  -0.553   3.070  1.00  0.00     0.159 HD
ATOM     19  H   UNL     1       3.352   0.424   3.537  1.00  0.00     0.159 HD
ATOM     20  H   UNL     1       3.488   2.054   0.653  1.00  0.00     0.191 HD
ENDBRANCH   4  13
BRANCH   7  21
ATOM     21  C   UNL     1       0.429  -2.116  -3.033  1.00  0.00     0.370 C 
ATOM     22  O   UNL     1       1.384  -2.474  -3.698  1.00  0.00    -0.243 OA
BRANCH  21  23
ATOM     23  O   UNL     1      -0.787  -2.667  -3.195  1.00  0.00    -0.475 OA
ATOM     24  H   UNL     1      -0.660  -3.319  -3.915  1.00  0.00     0.297 HD
ENDBRANCH  21  23
ENDBRANCH   7  21
ENDBRANCH   1   2
BRANCH   1  25
ATOM     25  O   UNL     1       0.157  -1.676   1.118  1.00  0.00    -0.386 OA
ATOM     26  H   UNL     1       0.003  -2.337   0.410  1.00  0.00     0.211 HD
ENDBRANCH   1  25
BRANCH   1  27
ATOM     27  C   UNL     1      -2.281  -1.465   1.065  1.00  0.00     0.172 C 
BRANCH  27  28
ATOM     28  O   UNL     1      -3.348  -0.520   1.010  1.00  0.00    -0.388 OA
ATOM     29  H   UNL     1      -4.181  -1.018   0.924  1.00  0.00     0.211 HD
ENDBRANCH  27  28
BRANCH  27  30
ATOM     30  C   UNL     1      -2.422  -2.317   2.337  1.00  0.00     0.190 C 
BRANCH  30  31
ATOM     31  O   UNL     1      -1.495  -3.393   2.365  1.00  0.00    -0.394 OA
ATOM     32  H   UNL     1      -0.604  -2.994   2.422  1.00  0.00     0.210 HD
ENDBRANCH  30  31
ENDBRANCH  27  30
ENDBRANCH   1  27
TORSDOF 10
