REMARK SMILES CN(C)C/C=C(/c1ccc(Br)cc1)c1cccnc1
REMARK SMILES IDX 5 1 6 2 4 3 2 4 1 5 3 6 7 7 8 8 13 9 9 10 12 11 10 12 11 13
REMARK SMILES IDX 14 14 19 15 15 16 18 17 16 18 17 19
REMARK H PARENT
ROOT
ATOM      1  C   UNL     1       0.623  -0.591  -0.450  1.00  0.00    -0.002 C 
ATOM      2  C   UNL     1      -0.548  -0.004  -0.112  1.00  0.00    -0.012 C 
ENDROOT
BRANCH   1   3
ATOM      3  C   UNL     1       1.998   0.025  -0.484  1.00  0.00     0.112 C 
BRANCH   3   4
ATOM      4  N   UNL     1       2.972  -0.784   0.271  1.00  0.00    -0.306 NA
ATOM      5  C   UNL     1       3.442  -1.936  -0.504  1.00  0.00     0.105 C 
ATOM      6  C   UNL     1       4.119   0.041   0.659  1.00  0.00     0.105 C 
ENDBRANCH   3   4
ENDBRANCH   1   3
BRANCH   2   7
ATOM      7  C   UNL     1      -1.764  -0.860  -0.095  1.00  0.00    -0.018 A 
ATOM      8  C   UNL     1      -1.804  -2.048   0.652  1.00  0.00     0.010 A 
ATOM      9  C   UNL     1      -2.911  -0.465  -0.799  1.00  0.00     0.010 A 
ATOM     10  C   UNL     1      -2.960  -2.834   0.679  1.00  0.00     0.016 A 
ATOM     11  C   UNL     1      -4.067  -1.249  -0.773  1.00  0.00     0.016 A 
ATOM     12  C   UNL     1      -4.085  -2.431  -0.036  1.00  0.00     0.018 A 
ATOM     13  Br  UNL     1      -5.649  -3.492  -0.000  1.00  0.00    -0.051 Br
ENDBRANCH   2   7
BRANCH   2  14
ATOM     14  C   UNL     1      -0.598   1.435   0.221  1.00  0.00     0.000 A 
ATOM     15  C   UNL     1      -0.842   1.859   1.524  1.00  0.00     0.119 A 
ATOM     16  C   UNL     1      -0.433   2.420  -0.757  1.00  0.00     0.012 A 
ATOM     17  N   UNL     1      -0.917   3.159   1.900  1.00  0.00    -0.264 NA
ATOM     18  C   UNL     1      -0.505   3.764  -0.400  1.00  0.00     0.021 A 
ATOM     19  C   UNL     1      -0.746   4.080   0.928  1.00  0.00     0.111 A 
ENDBRANCH   2  14
TORSDOF 4
