REMARK SMILES COc1cccc2c1C(=O)c1c(O)c3c(c(O)c1C2=O)C[C@@](O)(C(C)=NNC(=O)c1ccccc1)C[C@@H]3O[C@H]1C[C@H](N)[C@H](O)[C@H](C)O1
REMARK SMILES IDX 3 1 8 2 9 3 10 4 11 5 12 6 14 7 15 8 21 9 22 10 36 11 37 12
REMARK SMILES IDX 16 13 18 14 19 15 20 16 7 17 6 18 5 19 4 20 2 21 1 22 13 23
REMARK SMILES IDX 17 25 38 27 39 28 40 29 47 30 41 31 45 32 43 33 46 34 42 35
REMARK SMILES IDX 44 38 23 40 24 42 26 43 25 44 27 45 28 46 29 47 30 49 31 50
REMARK SMILES IDX 35 51 32 52 34 53 33 54
REMARK H PARENT 13 24 17 26 42 36 42 37 44 39 23 41 27 48
ROOT
ATOM      1  C   UNL     1      -5.081  -5.216   0.713  1.00  0.00     0.130 A 
ATOM      2  C   UNL     1      -3.932  -4.410   0.862  1.00  0.00     0.076 A 
ATOM      3  C   UNL     1      -3.767  -3.120   0.140  1.00  0.00     0.202 C 
ATOM      4  O   UNL     1      -4.642  -2.660  -0.587  1.00  0.00    -0.288 OA
ATOM      5  C   UNL     1      -2.527  -2.325   0.300  1.00  0.00     0.080 A 
ATOM      6  C   UNL     1      -2.356  -1.120  -0.406  1.00  0.00     0.133 A 
ATOM      7  C   UNL     1      -1.204  -0.341  -0.236  1.00  0.00     0.031 A 
ATOM      8  C   UNL     1      -0.198  -0.769   0.653  1.00  0.00     0.007 A 
ATOM      9  C   UNL     1       0.984   0.144   0.918  1.00  0.00     0.081 C 
ATOM     10  C   UNL     1       1.451   1.007  -0.288  1.00  0.00     0.111 C 
ATOM     11  C   UNL     1       0.419   1.099  -1.427  1.00  0.00     0.079 C 
ATOM     12  C   UNL     1      -1.027   0.987  -0.938  1.00  0.00     0.159 C 
ATOM     13  C   UNL     1      -0.375  -1.968   1.356  1.00  0.00     0.131 A 
ATOM     14  C   UNL     1      -1.530  -2.751   1.175  1.00  0.00     0.080 A 
ATOM     15  C   UNL     1      -1.707  -4.008   1.925  1.00  0.00     0.198 C 
ATOM     16  O   UNL     1      -0.833  -4.373   2.705  1.00  0.00    -0.288 OA
ATOM     17  C   UNL     1      -2.923  -4.820   1.739  1.00  0.00     0.038 A 
ATOM     18  C   UNL     1      -3.045  -6.015   2.462  1.00  0.00     0.013 A 
ATOM     19  C   UNL     1      -4.174  -6.812   2.308  1.00  0.00     0.005 A 
ATOM     20  C   UNL     1      -5.183  -6.418   1.431  1.00  0.00     0.047 A 
ENDROOT
BRANCH   1  21
ATOM     21  O   UNL     1      -6.042  -4.824  -0.181  1.00  0.00    -0.496 OA
ATOM     22  C   UNL     1      -7.378  -5.242   0.080  1.00  0.00     0.278 C 
ENDBRANCH   1  21
BRANCH   6  23
ATOM     23  O   UNL     1      -3.305  -0.650  -1.280  1.00  0.00    -0.507 OA
ATOM     24  H   UNL     1      -4.089  -1.247  -1.238  1.00  0.00     0.293 HD
ENDBRANCH   6  23
BRANCH  13  25
ATOM     25  O   UNL     1       0.609  -2.324   2.242  1.00  0.00    -0.507 OA
ATOM     26  H   UNL     1       0.364  -3.178   2.664  1.00  0.00     0.293 HD
ENDBRANCH  13  25
BRANCH  12  27
ATOM     27  O   UNL     1      -1.301   1.996   0.028  1.00  0.00    -0.344 OA
BRANCH  27  28
ATOM     28  C   UNL     1      -2.120   3.057  -0.458  1.00  0.00     0.252 C 
ATOM     29  C   UNL     1      -2.287   4.010   0.732  1.00  0.00     0.083 C 
ATOM     30  O   UNL     1      -1.497   3.665  -1.590  1.00  0.00    -0.347 OA
ATOM     31  C   UNL     1      -1.196   5.077   0.676  1.00  0.00     0.087 C 
ATOM     32  C   UNL     1      -1.823   5.041  -1.808  1.00  0.00     0.148 C 
ATOM     33  C   UNL     1      -1.372   5.913  -0.615  1.00  0.00     0.160 C 
ATOM     34  C   UNL     1      -3.282   5.194  -2.234  1.00  0.00     0.041 C 
BRANCH  31  35
ATOM     35  N   UNL     1      -1.269   5.957   1.866  1.00  0.00    -0.325 NA
ATOM     36  H   UNL     1      -0.420   6.530   1.893  1.00  0.00     0.119 HD
ATOM     37  H   UNL     1      -1.215   5.361   2.700  1.00  0.00     0.119 HD
ENDBRANCH  31  35
BRANCH  33  38
ATOM     38  O   UNL     1      -2.294   6.983  -0.374  1.00  0.00    -0.389 OA
ATOM     39  H   UNL     1      -2.288   7.086   0.603  1.00  0.00     0.211 HD
ENDBRANCH  33  38
ENDBRANCH  27  28
ENDBRANCH  12  27
BRANCH  10  40
ATOM     40  O   UNL     1       1.699   2.343   0.206  1.00  0.00    -0.383 OA
ATOM     41  H   UNL     1       2.357   2.260   0.919  1.00  0.00     0.211 HD
ENDBRANCH  10  40
BRANCH  10  42
ATOM     42  C   UNL     1       2.814   0.553  -0.882  1.00  0.00     0.067 C 
ATOM     43  N   UNL     1       3.304  -0.606  -0.539  1.00  0.00    -0.179 NA
ATOM     44  C   UNL     1       3.496   1.516  -1.845  1.00  0.00     0.067 C 
BRANCH  43  45
ATOM     45  N   UNL     1       4.608  -0.886  -0.859  1.00  0.00    -0.243 N 
ATOM     46  C   UNL     1       5.632  -0.140  -0.267  1.00  0.00     0.271 C 
ATOM     47  O   UNL     1       5.461   0.884   0.390  1.00  0.00    -0.267 OA
ATOM     48  H   UNL     1       4.793  -1.884  -0.925  1.00  0.00     0.194 HD
BRANCH  46  49
ATOM     49  C   UNL     1       7.011  -0.671  -0.458  1.00  0.00     0.041 A 
ATOM     50  C   UNL     1       7.355  -1.475  -1.551  1.00  0.00     0.014 A 
ATOM     51  C   UNL     1       7.994  -0.309   0.471  1.00  0.00     0.014 A 
ATOM     52  C   UNL     1       8.669  -1.929  -1.698  1.00  0.00     0.001 A 
ATOM     53  C   UNL     1       9.306  -0.761   0.321  1.00  0.00     0.001 A 
ATOM     54  C   UNL     1       9.640  -1.573  -0.762  1.00  0.00     0.000 A 
ENDBRANCH  46  49
ENDBRANCH  43  45
ENDBRANCH  10  42
TORSDOF 11
